Compiler and run-time data
===============================================================================
RASPA 3.0.0

Random seed: 2463918212

Compiled as a 64-bits application
Compiler: gcc Homebrew Clang 18.1.8
Compile Date = Aug 16 2024, Compile Time = 18:29:57

2024-08-17 10:57:31.855462
Simulation started on Sat, Aug 17
The start time was 10:57:00

Cpu data:    x86_64
Cpu Model:   MacPro7,1
Host name:  MacPro.fritz.boxs
OS release:  23.5.0
OS type:     Darwin
OS version:  23F79



Mutual consistent basic set of units:
===============================================================================

Unit of temperature: Kelvin
Unit of length:      1e-10 [m]
Unit of time:        1e-12 [s]
Unit of mass:        1.6605402e-27 [kg]
Unit of charge:      1.60217733e-19 [C/particle]


Derived units and their conversion factors:
===============================================================================

Boltzmann constant:          0.8314464919307584 [-]
Unit of energy:              1.6605402000000002e-23 [J]
Unit of force:               1.6605402000000002e-13 [N]
Unit of pressure:            16605402 [Pa]
Unit of velocity:            100 [m/s]
Unit of acceleration:        1.0000000000000002e-08 [m²/s]
Unit of diffusion:           1.0000000000000002e-08 [m²/s]
Unit of dipole moment:       1.60217733e-29 [C.m]
Unit of electric potential:  0.00010364272224473431 [V]
Unit of electric field:      1036427.222447343 [V]
Unit of polarizability:      1.5458657349975198e-35 [-]
Unit of Coulomb potential:   167101.08000665612 [K]
Unit of dielectric constant: 1.5458657349975197e-05 [s² C²/(kg m³)]


Derived units and their conversion factors:
===============================================================================

Boltzmann constant:          0.8314464919307584 [-]
Unit of energy:              1.6605402000000002e-23 [J]
Unit of force:               1.6605402000000002e-13 [N]
Unit of pressure:            16605402 [Pa]
Unit of velocity:            100 [m/s]
Unit of acceleration:        1.0000000000000002e-08 [m²/s]
Unit of diffusion:           1.0000000000000002e-08 [m²/s]
Unit of dipole moment:       1.60217733e-29 [C.m]
Unit of electric potential:  0.00010364272224473431 [V]
Unit of electric field:      1036427.222447343 [V]
Unit of polarizability:      1.5458657349975198e-35 [-]
Unit of Coulomb potential:   167101.08000665612 [K]
Unit of dielectric constant: 1.5458657349975197e-05 [s² C²/(kg m³)]


Internal conversion factors:
===============================================================================

Energy to Kelvin:      1.202724284692786 [-]
Kelvin to energy:      0.8314457542157568 [-]


System definitions
===============================================================================

Temperature:          300 [K]
Beta:                 0.004009077391850886 [-]
Pressure:             0 [Pa]
Helium void fraction: 0.29 [-]

Box:      23.73420   0.00000   0.00000
           0.00000  23.73420   0.00000
           0.00000   0.00000  23.73420
Lengths:  23.73420  23.73420  23.73420
Angles:   90.00000  90.00000  90.00000
Rectangular boundary conditions



Property measurement settings
===============================================================================




Pseudo-atoms
===============================================================================

  0 - O        mass: 28.08550, charge: -1.02500, polarizability:  0.00000
  1 - Al       mass: 26.98154, charge:  1.75000, polarizability:  0.00000
  2 - Si       mass: 28.08550, charge:  2.05000, polarizability:  0.00000
  3 - He       mass:  4.00260, charge:  0.00000, polarizability:  0.00000
  4 - C_co2    mass: 12.00000, charge:  0.65120, polarizability:  0.00000
  5 - O_co2    mass: 15.99940, charge: -0.32560, polarizability:  0.00000
  6 - O_o2     mass: 15.99940, charge: -0.11200, polarizability:  0.00000
  7 - O_com    mass:  0.00000, charge:  0.22400, polarizability:  0.00000
  8 - N_n2     mass: 14.00674, charge: -0.40500, polarizability:  0.00000
  9 - N_com    mass:  0.00000, charge:  0.81000, polarizability:  0.00000
 10 - Ar       mass: 39.94800, charge:  0.00000, polarizability:  0.00000
 11 - CH4      mass: 16.04246, charge:  0.00000, polarizability:  0.00000
 12 - CH3      mass: 15.03452, charge:  0.00000, polarizability:  0.00000
 13 - CH2      mass: 14.02658, charge:  0.00000, polarizability:  0.00000
 14 - CH       mass: 13.01864, charge:  0.00000, polarizability:  0.00000
 15 - C        mass: 12.00000, charge:  0.00000, polarizability:  0.00000

  0 - O        P. Bai, M. Tsapatsis, J. I. Siepmann, J. Phys. Chem. C 2013, 117, 24375-24387
  1 - Al       P. Bai, M. Tsapatsis, J. I. Siepmann, J. Phys. Chem. C 2013, 117, 24375-24387
  2 - Si       P. Bai, M. Tsapatsis, J. I. Siepmann, J. Phys. Chem. C 2013, 117, 24375-24387
  3 - He       J.O. Hirschfelder et al., Molecular Theory of Gases and Liquids, Wiley, New York, 1954, p. 1114
  4 - C_co2    A. Garcia-Sanchez et al., J. Phys. Chem. C 2009, 113, 8814-8820
  5 - O_co2    A. Garcia-Sanchez et al., J. Phys. Chem. C 2009, 113, 8814-8820
  6 - O_o2     A. Martin-Calvo et al. , Phys. Chem. Chem. Phys. 2011, 13, 11165-11174
  7 - O_com    A. Martin-Calvo et al. , Phys. Chem. Chem. Phys. 2011, 13, 11165-11174
  8 - N_n2     A. Martin-Calvo et al. , Phys. Chem. Chem. Phys. 2011, 13, 11165-11174
  9 - N_com    A. Martin-Calvo et al. , Phys. Chem. Chem. Phys. 2011, 13, 11165-11174
 10 - Ar       A. Martin-Calvo et al. , Phys. Chem. Chem. Phys. 2011, 13, 11165-11174
 11 - CH4      M. G. Martin et al., J. Chem. Phys. 2001, 114, 7174-7181
 12 - CH3      D. Dubbeldam et al., J. Phys. Chem. B, 108(33), 12301-12313
 13 - CH2      D. Dubbeldam et al., J. Phys. Chem. B, 108(33), 12301-12313
 14 - CH       D. Dubbeldam et al., J. Phys. Chem. B, 108(33), 12301-12313
 15 - C        D. Dubbeldam et al., J. Phys. Chem. B, 108(33), 12301-12313

Force field status
===============================================================================

Overlap-criteria VDW:   1.000000e+05 [K]

Cutoff VDW:      12.00000 [Å]
Cutoff Coulomb:  12.00000 [Å]

O        - O        Lennard-Jones p₀/kʙ:  53.00000 [K], p₁:  3.30000 [Å]
                                  shift:  -0.09165 [K], tailcorrections: false
O        - Al       Lennard-Jones p₀/kʙ:   0.00000 [K], p₁:  1.65000 [Å]
                                  shift:   0.00000 [K], tailcorrections: false
O        - Si       Lennard-Jones p₀/kʙ:  34.14674 [K], p₁:  2.80000 [Å]
                                  shift:  -0.02204 [K], tailcorrections: false
O        - He       Lennard-Jones p₀/kʙ:  24.03539 [K], p₁:  2.97000 [Å]
                                  shift:  -0.02209 [K], tailcorrections: false
O        - C_co2    Lennard-Jones p₀/kʙ:  39.83025 [K], p₁:  3.02250 [Å]
                                  shift:  -0.04067 [K], tailcorrections: false
O        - O_co2    Lennard-Jones p₀/kʙ:  67.38370 [K], p₁:  3.15850 [Å]
                                  shift:  -0.08959 [K], tailcorrections: false
O        - O_o2     Lennard-Jones p₀/kʙ:   0.00000 [K], p₁:  1.65000 [Å]
                                  shift:   0.00000 [K], tailcorrections: false
O        - O_com    Lennard-Jones p₀/kʙ:   0.00000 [K], p₁:  1.65000 [Å]
                                  shift:   0.00000 [K], tailcorrections: false
O        - N_n2     Lennard-Jones p₀/kʙ:   0.00000 [K], p₁:  1.65000 [Å]
                                  shift:   0.00000 [K], tailcorrections: false
O        - N_com    Lennard-Jones p₀/kʙ:   0.00000 [K], p₁:  1.65000 [Å]
                                  shift:   0.00000 [K], tailcorrections: false
O        - Ar       Lennard-Jones p₀/kʙ:   0.00000 [K], p₁:  1.65000 [Å]
                                  shift:   0.00000 [K], tailcorrections: false
O        - CH4      Lennard-Jones p₀/kʙ:  91.65424 [K], p₁:  3.51000 [Å]
                                  shift:  -0.22945 [K], tailcorrections: false
O        - CH3      Lennard-Jones p₀/kʙ:   0.00000 [K], p₁:  1.65000 [Å]
                                  shift:   0.00000 [K], tailcorrections: false
O        - CH2      Lennard-Jones p₀/kʙ:   0.00000 [K], p₁:  1.65000 [Å]
                                  shift:   0.00000 [K], tailcorrections: false
O        - CH       Lennard-Jones p₀/kʙ:   0.00000 [K], p₁:  1.65000 [Å]
                                  shift:   0.00000 [K], tailcorrections: false
O        - C        Lennard-Jones p₀/kʙ:   0.00000 [K], p₁:  1.65000 [Å]
                                  shift:   0.00000 [K], tailcorrections: false
Al       - Al       Lennard-Jones p₀/kʙ:   0.00000 [K], p₁:  0.00000 [Å]
                                  shift:   0.00000 [K], tailcorrections: false
Al       - Si       Lennard-Jones p₀/kʙ:   0.00000 [K], p₁:  1.15000 [Å]
                                  shift:   0.00000 [K], tailcorrections: false
Al       - He       Lennard-Jones p₀/kʙ:   0.00000 [K], p₁:  1.32000 [Å]
                                  shift:   0.00000 [K], tailcorrections: false
Al       - C_co2    Lennard-Jones p₀/kʙ:   0.00000 [K], p₁:  1.37250 [Å]
                                  shift:   0.00000 [K], tailcorrections: false
Al       - O_co2    Lennard-Jones p₀/kʙ:   0.00000 [K], p₁:  1.50850 [Å]
                                  shift:   0.00000 [K], tailcorrections: false
Al       - O_o2     Lennard-Jones p₀/kʙ:   0.00000 [K], p₁:  0.00000 [Å]
                                  shift:   0.00000 [K], tailcorrections: false
Al       - O_com    Lennard-Jones p₀/kʙ:   0.00000 [K], p₁:  0.00000 [Å]
                                  shift:   0.00000 [K], tailcorrections: false
Al       - N_n2     Lennard-Jones p₀/kʙ:   0.00000 [K], p₁:  0.00000 [Å]
                                  shift:   0.00000 [K], tailcorrections: false
Al       - N_com    Lennard-Jones p₀/kʙ:   0.00000 [K], p₁:  0.00000 [Å]
                                  shift:   0.00000 [K], tailcorrections: false
Al       - Ar       Lennard-Jones p₀/kʙ:   0.00000 [K], p₁:  0.00000 [Å]
                                  shift:   0.00000 [K], tailcorrections: false
Al       - CH4      Lennard-Jones p₀/kʙ:   0.00000 [K], p₁:  1.86000 [Å]
                                  shift:   0.00000 [K], tailcorrections: false
Al       - CH3      Lennard-Jones p₀/kʙ:   0.00000 [K], p₁:  0.00000 [Å]
                                  shift:   0.00000 [K], tailcorrections: false
Al       - CH2      Lennard-Jones p₀/kʙ:   0.00000 [K], p₁:  0.00000 [Å]
                                  shift:   0.00000 [K], tailcorrections: false
Al       - CH       Lennard-Jones p₀/kʙ:   0.00000 [K], p₁:  0.00000 [Å]
                                  shift:   0.00000 [K], tailcorrections: false
Al       - C        Lennard-Jones p₀/kʙ:   0.00000 [K], p₁:  0.00000 [Å]
                                  shift:   0.00000 [K], tailcorrections: false
Si       - Si       Lennard-Jones p₀/kʙ:  22.00000 [K], p₁:  2.30000 [Å]
                                  shift:  -0.00436 [K], tailcorrections: false
Si       - He       Lennard-Jones p₀/kʙ:  15.48548 [K], p₁:  2.47000 [Å]
                                  shift:  -0.00471 [K], tailcorrections: false
Si       - C_co2    Lennard-Jones p₀/kʙ:  25.66176 [K], p₁:  2.52250 [Å]
                                  shift:  -0.00886 [K], tailcorrections: false
Si       - O_co2    Lennard-Jones p₀/kʙ:  43.41385 [K], p₁:  2.65850 [Å]
                                  shift:  -0.02053 [K], tailcorrections: false
Si       - O_o2     Lennard-Jones p₀/kʙ:   0.00000 [K], p₁:  1.15000 [Å]
                                  shift:   0.00000 [K], tailcorrections: false
Si       - O_com    Lennard-Jones p₀/kʙ:   0.00000 [K], p₁:  1.15000 [Å]
                                  shift:   0.00000 [K], tailcorrections: false
Si       - N_n2     Lennard-Jones p₀/kʙ:   0.00000 [K], p₁:  1.15000 [Å]
                                  shift:   0.00000 [K], tailcorrections: false
Si       - N_com    Lennard-Jones p₀/kʙ:   0.00000 [K], p₁:  1.15000 [Å]
                                  shift:   0.00000 [K], tailcorrections: false
Si       - Ar       Lennard-Jones p₀/kʙ:   0.00000 [K], p₁:  1.15000 [Å]
                                  shift:   0.00000 [K], tailcorrections: false
Si       - CH4      Lennard-Jones p₀/kʙ:  59.05083 [K], p₁:  3.01000 [Å]
                                  shift:  -0.05882 [K], tailcorrections: false
Si       - CH3      Lennard-Jones p₀/kʙ:   0.00000 [K], p₁:  1.15000 [Å]
                                  shift:   0.00000 [K], tailcorrections: false
Si       - CH2      Lennard-Jones p₀/kʙ:   0.00000 [K], p₁:  1.15000 [Å]
                                  shift:   0.00000 [K], tailcorrections: false
Si       - CH       Lennard-Jones p₀/kʙ:   0.00000 [K], p₁:  1.15000 [Å]
                                  shift:   0.00000 [K], tailcorrections: false
Si       - C        Lennard-Jones p₀/kʙ:   0.00000 [K], p₁:  1.15000 [Å]
                                  shift:   0.00000 [K], tailcorrections: false
He       - He       Lennard-Jones p₀/kʙ:  10.90000 [K], p₁:  2.64000 [Å]
                                  shift:  -0.00494 [K], tailcorrections: false
He       - C_co2    Lennard-Jones p₀/kʙ:  18.06294 [K], p₁:  2.69250 [Å]
                                  shift:  -0.00922 [K], tailcorrections: false
He       - O_co2    Lennard-Jones p₀/kʙ:  30.55837 [K], p₁:  2.82850 [Å]
                                  shift:  -0.02096 [K], tailcorrections: false
He       - O_o2     Lennard-Jones p₀/kʙ:   0.00000 [K], p₁:  1.32000 [Å]
                                  shift:   0.00000 [K], tailcorrections: false
He       - O_com    Lennard-Jones p₀/kʙ:   0.00000 [K], p₁:  1.32000 [Å]
                                  shift:   0.00000 [K], tailcorrections: false
He       - N_n2     Lennard-Jones p₀/kʙ:   0.00000 [K], p₁:  1.32000 [Å]
                                  shift:   0.00000 [K], tailcorrections: false
He       - N_com    Lennard-Jones p₀/kʙ:   0.00000 [K], p₁:  1.32000 [Å]
                                  shift:   0.00000 [K], tailcorrections: false
He       - Ar       Lennard-Jones p₀/kʙ:   0.00000 [K], p₁:  1.32000 [Å]
                                  shift:   0.00000 [K], tailcorrections: false
He       - CH4      Lennard-Jones p₀/kʙ:  41.56501 [K], p₁:  3.18000 [Å]
                                  shift:  -0.05756 [K], tailcorrections: false
He       - CH3      Lennard-Jones p₀/kʙ:   0.00000 [K], p₁:  1.32000 [Å]
                                  shift:   0.00000 [K], tailcorrections: false
He       - CH2      Lennard-Jones p₀/kʙ:   0.00000 [K], p₁:  1.32000 [Å]
                                  shift:   0.00000 [K], tailcorrections: false
He       - CH       Lennard-Jones p₀/kʙ:   0.00000 [K], p₁:  1.32000 [Å]
                                  shift:   0.00000 [K], tailcorrections: false
He       - C        Lennard-Jones p₀/kʙ:   0.00000 [K], p₁:  1.32000 [Å]
                                  shift:   0.00000 [K], tailcorrections: false
C_co2    - C_co2    Lennard-Jones p₀/kʙ:  29.93300 [K], p₁:  2.74500 [Å]
                                  shift:  -0.01715 [K], tailcorrections: false
C_co2    - O_co2    Lennard-Jones p₀/kʙ:  50.63981 [K], p₁:  2.88100 [Å]
                                  shift:  -0.03878 [K], tailcorrections: false
C_co2    - O_o2     Lennard-Jones p₀/kʙ:   0.00000 [K], p₁:  1.37250 [Å]
                                  shift:   0.00000 [K], tailcorrections: false
C_co2    - O_com    Lennard-Jones p₀/kʙ:   0.00000 [K], p₁:  1.37250 [Å]
                                  shift:   0.00000 [K], tailcorrections: false
C_co2    - N_n2     Lennard-Jones p₀/kʙ:   0.00000 [K], p₁:  1.37250 [Å]
                                  shift:   0.00000 [K], tailcorrections: false
C_co2    - N_com    Lennard-Jones p₀/kʙ:   0.00000 [K], p₁:  1.37250 [Å]
                                  shift:   0.00000 [K], tailcorrections: false
C_co2    - Ar       Lennard-Jones p₀/kʙ:   0.00000 [K], p₁:  1.37250 [Å]
                                  shift:   0.00000 [K], tailcorrections: false
C_co2    - CH4      Lennard-Jones p₀/kʙ:  68.87946 [K], p₁:  3.23250 [Å]
                                  shift:  -0.10523 [K], tailcorrections: false
C_co2    - CH3      Lennard-Jones p₀/kʙ:   0.00000 [K], p₁:  1.37250 [Å]
                                  shift:   0.00000 [K], tailcorrections: false
C_co2    - CH2      Lennard-Jones p₀/kʙ:   0.00000 [K], p₁:  1.37250 [Å]
                                  shift:   0.00000 [K], tailcorrections: false
C_co2    - CH       Lennard-Jones p₀/kʙ:   0.00000 [K], p₁:  1.37250 [Å]
                                  shift:   0.00000 [K], tailcorrections: false
C_co2    - C        Lennard-Jones p₀/kʙ:   0.00000 [K], p₁:  1.37250 [Å]
                                  shift:   0.00000 [K], tailcorrections: false
O_co2    - O_co2    Lennard-Jones p₀/kʙ:  85.67100 [K], p₁:  3.01700 [Å]
                                  shift:  -0.08653 [K], tailcorrections: false
O_co2    - O_o2     Lennard-Jones p₀/kʙ:   0.00000 [K], p₁:  1.50850 [Å]
                                  shift:   0.00000 [K], tailcorrections: false
O_co2    - O_com    Lennard-Jones p₀/kʙ:   0.00000 [K], p₁:  1.50850 [Å]
                                  shift:   0.00000 [K], tailcorrections: false
O_co2    - N_n2     Lennard-Jones p₀/kʙ:   0.00000 [K], p₁:  1.50850 [Å]
                                  shift:   0.00000 [K], tailcorrections: false
O_co2    - N_com    Lennard-Jones p₀/kʙ:   0.00000 [K], p₁:  1.50850 [Å]
                                  shift:   0.00000 [K], tailcorrections: false
O_co2    - Ar       Lennard-Jones p₀/kʙ:   0.00000 [K], p₁:  1.50850 [Å]
                                  shift:   0.00000 [K], tailcorrections: false
O_co2    - CH4      Lennard-Jones p₀/kʙ: 116.52834 [K], p₁:  3.36850 [Å]
                                  shift:  -0.22793 [K], tailcorrections: false
O_co2    - CH3      Lennard-Jones p₀/kʙ:   0.00000 [K], p₁:  1.50850 [Å]
                                  shift:   0.00000 [K], tailcorrections: false
O_co2    - CH2      Lennard-Jones p₀/kʙ:   0.00000 [K], p₁:  1.50850 [Å]
                                  shift:   0.00000 [K], tailcorrections: false
O_co2    - CH       Lennard-Jones p₀/kʙ:   0.00000 [K], p₁:  1.50850 [Å]
                                  shift:   0.00000 [K], tailcorrections: false
O_co2    - C        Lennard-Jones p₀/kʙ:   0.00000 [K], p₁:  1.50850 [Å]
                                  shift:   0.00000 [K], tailcorrections: false
O_o2     - O_o2     Lennard-Jones p₀/kʙ:   0.00000 [K], p₁:  0.00000 [Å]
                                  shift:   0.00000 [K], tailcorrections: false
O_o2     - O_com    Lennard-Jones p₀/kʙ:   0.00000 [K], p₁:  0.00000 [Å]
                                  shift:   0.00000 [K], tailcorrections: false
O_o2     - N_n2     Lennard-Jones p₀/kʙ:   0.00000 [K], p₁:  0.00000 [Å]
                                  shift:   0.00000 [K], tailcorrections: false
O_o2     - N_com    Lennard-Jones p₀/kʙ:   0.00000 [K], p₁:  0.00000 [Å]
                                  shift:   0.00000 [K], tailcorrections: false
O_o2     - Ar       Lennard-Jones p₀/kʙ:   0.00000 [K], p₁:  0.00000 [Å]
                                  shift:   0.00000 [K], tailcorrections: false
O_o2     - CH4      Lennard-Jones p₀/kʙ:   0.00000 [K], p₁:  1.86000 [Å]
                                  shift:   0.00000 [K], tailcorrections: false
O_o2     - CH3      Lennard-Jones p₀/kʙ:   0.00000 [K], p₁:  0.00000 [Å]
                                  shift:   0.00000 [K], tailcorrections: false
O_o2     - CH2      Lennard-Jones p₀/kʙ:   0.00000 [K], p₁:  0.00000 [Å]
                                  shift:   0.00000 [K], tailcorrections: false
O_o2     - CH       Lennard-Jones p₀/kʙ:   0.00000 [K], p₁:  0.00000 [Å]
                                  shift:   0.00000 [K], tailcorrections: false
O_o2     - C        Lennard-Jones p₀/kʙ:   0.00000 [K], p₁:  0.00000 [Å]
                                  shift:   0.00000 [K], tailcorrections: false
O_com    - O_com    Lennard-Jones p₀/kʙ:   0.00000 [K], p₁:  0.00000 [Å]
                                  shift:   0.00000 [K], tailcorrections: false
O_com    - N_n2     Lennard-Jones p₀/kʙ:   0.00000 [K], p₁:  0.00000 [Å]
                                  shift:   0.00000 [K], tailcorrections: false
O_com    - N_com    Lennard-Jones p₀/kʙ:   0.00000 [K], p₁:  0.00000 [Å]
                                  shift:   0.00000 [K], tailcorrections: false
O_com    - Ar       Lennard-Jones p₀/kʙ:   0.00000 [K], p₁:  0.00000 [Å]
                                  shift:   0.00000 [K], tailcorrections: false
O_com    - CH4      Lennard-Jones p₀/kʙ:   0.00000 [K], p₁:  1.86000 [Å]
                                  shift:   0.00000 [K], tailcorrections: false
O_com    - CH3      Lennard-Jones p₀/kʙ:   0.00000 [K], p₁:  0.00000 [Å]
                                  shift:   0.00000 [K], tailcorrections: false
O_com    - CH2      Lennard-Jones p₀/kʙ:   0.00000 [K], p₁:  0.00000 [Å]
                                  shift:   0.00000 [K], tailcorrections: false
O_com    - CH       Lennard-Jones p₀/kʙ:   0.00000 [K], p₁:  0.00000 [Å]
                                  shift:   0.00000 [K], tailcorrections: false
O_com    - C        Lennard-Jones p₀/kʙ:   0.00000 [K], p₁:  0.00000 [Å]
                                  shift:   0.00000 [K], tailcorrections: false
N_n2     - N_n2     Lennard-Jones p₀/kʙ:   0.00000 [K], p₁:  0.00000 [Å]
                                  shift:   0.00000 [K], tailcorrections: false
N_n2     - N_com    Lennard-Jones p₀/kʙ:   0.00000 [K], p₁:  0.00000 [Å]
                                  shift:   0.00000 [K], tailcorrections: false
N_n2     - Ar       Lennard-Jones p₀/kʙ:   0.00000 [K], p₁:  0.00000 [Å]
                                  shift:   0.00000 [K], tailcorrections: false
N_n2     - CH4      Lennard-Jones p₀/kʙ:   0.00000 [K], p₁:  1.86000 [Å]
                                  shift:   0.00000 [K], tailcorrections: false
N_n2     - CH3      Lennard-Jones p₀/kʙ:   0.00000 [K], p₁:  0.00000 [Å]
                                  shift:   0.00000 [K], tailcorrections: false
N_n2     - CH2      Lennard-Jones p₀/kʙ:   0.00000 [K], p₁:  0.00000 [Å]
                                  shift:   0.00000 [K], tailcorrections: false
N_n2     - CH       Lennard-Jones p₀/kʙ:   0.00000 [K], p₁:  0.00000 [Å]
                                  shift:   0.00000 [K], tailcorrections: false
N_n2     - C        Lennard-Jones p₀/kʙ:   0.00000 [K], p₁:  0.00000 [Å]
                                  shift:   0.00000 [K], tailcorrections: false
N_com    - N_com    Lennard-Jones p₀/kʙ:   0.00000 [K], p₁:  0.00000 [Å]
                                  shift:   0.00000 [K], tailcorrections: false
N_com    - Ar       Lennard-Jones p₀/kʙ:   0.00000 [K], p₁:  0.00000 [Å]
                                  shift:   0.00000 [K], tailcorrections: false
N_com    - CH4      Lennard-Jones p₀/kʙ:   0.00000 [K], p₁:  1.86000 [Å]
                                  shift:   0.00000 [K], tailcorrections: false
N_com    - CH3      Lennard-Jones p₀/kʙ:   0.00000 [K], p₁:  0.00000 [Å]
                                  shift:   0.00000 [K], tailcorrections: false
N_com    - CH2      Lennard-Jones p₀/kʙ:   0.00000 [K], p₁:  0.00000 [Å]
                                  shift:   0.00000 [K], tailcorrections: false
N_com    - CH       Lennard-Jones p₀/kʙ:   0.00000 [K], p₁:  0.00000 [Å]
                                  shift:   0.00000 [K], tailcorrections: false
N_com    - C        Lennard-Jones p₀/kʙ:   0.00000 [K], p₁:  0.00000 [Å]
                                  shift:   0.00000 [K], tailcorrections: false
Ar       - Ar       Lennard-Jones p₀/kʙ:   0.00000 [K], p₁:  0.00000 [Å]
                                  shift:   0.00000 [K], tailcorrections: false
Ar       - CH4      Lennard-Jones p₀/kʙ:   0.00000 [K], p₁:  1.86000 [Å]
                                  shift:   0.00000 [K], tailcorrections: false
Ar       - CH3      Lennard-Jones p₀/kʙ:   0.00000 [K], p₁:  0.00000 [Å]
                                  shift:   0.00000 [K], tailcorrections: false
Ar       - CH2      Lennard-Jones p₀/kʙ:   0.00000 [K], p₁:  0.00000 [Å]
                                  shift:   0.00000 [K], tailcorrections: false
Ar       - CH       Lennard-Jones p₀/kʙ:   0.00000 [K], p₁:  0.00000 [Å]
                                  shift:   0.00000 [K], tailcorrections: false
Ar       - C        Lennard-Jones p₀/kʙ:   0.00000 [K], p₁:  0.00000 [Å]
                                  shift:   0.00000 [K], tailcorrections: false
CH4      - CH4      Lennard-Jones p₀/kʙ: 158.50000 [K], p₁:  3.72000 [Å]
                                  shift:  -0.56218 [K], tailcorrections: false
CH4      - CH3      Lennard-Jones p₀/kʙ:   0.00000 [K], p₁:  1.86000 [Å]
                                  shift:   0.00000 [K], tailcorrections: false
CH4      - CH2      Lennard-Jones p₀/kʙ:   0.00000 [K], p₁:  1.86000 [Å]
                                  shift:   0.00000 [K], tailcorrections: false
CH4      - CH       Lennard-Jones p₀/kʙ:   0.00000 [K], p₁:  1.86000 [Å]
                                  shift:   0.00000 [K], tailcorrections: false
CH4      - C        Lennard-Jones p₀/kʙ:   0.00000 [K], p₁:  1.86000 [Å]
                                  shift:   0.00000 [K], tailcorrections: false
CH3      - CH3      Lennard-Jones p₀/kʙ:   0.00000 [K], p₁:  0.00000 [Å]
                                  shift:   0.00000 [K], tailcorrections: false
CH3      - CH2      Lennard-Jones p₀/kʙ:   0.00000 [K], p₁:  0.00000 [Å]
                                  shift:   0.00000 [K], tailcorrections: false
CH3      - CH       Lennard-Jones p₀/kʙ:   0.00000 [K], p₁:  0.00000 [Å]
                                  shift:   0.00000 [K], tailcorrections: false
CH3      - C        Lennard-Jones p₀/kʙ:   0.00000 [K], p₁:  0.00000 [Å]
                                  shift:   0.00000 [K], tailcorrections: false
CH2      - CH2      Lennard-Jones p₀/kʙ:   0.00000 [K], p₁:  0.00000 [Å]
                                  shift:   0.00000 [K], tailcorrections: false
CH2      - CH       Lennard-Jones p₀/kʙ:   0.00000 [K], p₁:  0.00000 [Å]
                                  shift:   0.00000 [K], tailcorrections: false
CH2      - C        Lennard-Jones p₀/kʙ:   0.00000 [K], p₁:  0.00000 [Å]
                                  shift:   0.00000 [K], tailcorrections: false
CH       - CH       Lennard-Jones p₀/kʙ:   0.00000 [K], p₁:  0.00000 [Å]
                                  shift:   0.00000 [K], tailcorrections: false
CH       - C        Lennard-Jones p₀/kʙ:   0.00000 [K], p₁:  0.00000 [Å]
                                  shift:   0.00000 [K], tailcorrections: false
C        - C        Lennard-Jones p₀/kʙ:   0.00000 [K], p₁:  0.00000 [Å]
                                  shift:   0.00000 [K], tailcorrections: false

Ewald precision: 1e-06
Ewald alpha: 0.26505830360350674
Ewald k-vectors: 7 7 7


Component definitions
===============================================================================

Framework 0 [ITQ-29]

    number Of Atoms:                    72 [-]
    use charge from CIF-file:         true
    net charge:                    0.00000 [e]
    smallest charge:              -1.02500 [e]
    largest charge:                2.05000 [e]
    mass:                      16177.24800 [amu]
      0: Si     position  0.36830  0.18470  0.00000, charge  2.05000
      1: O      position  0.50000  0.21790  0.00000, charge -1.02500
      2: O      position  0.29390  0.29390  0.00000, charge -1.02500
      3: O      position  0.34290  0.10980  0.10980, charge -1.02500
    number of bonds: 0

Component 0 [helium]

    Type: Adsorbate

    Critical temperature:  5.2 [K]
    Critical pressure:     228000 [Pa]
    Acentric factor:       -0.39 [-]

    Mol-fraction:                 1 [-]
    Swappable:                   false

    Mass:                         4.002602 [-]
    Bulk fluid density:           0 [-]
    Compressibility:              0 [-]
    Excess molecules:             0 [-]

    Number Of Atoms:    1
    CBMC starting bead: 0
      0: He     position  0.00000 -0.00000  0.00000, charge  0.00000
    Diagonalized inertia-vector:      0.00000000 0.00000000 0.00000000
    Translational degrees of freedom: 3
    Rotational degrees of freedom:    0
    Net-charge:        0.00000000 [e]

    Translation-move probability:             0 [-]
    Random translation-move probability:      0 [-]
    Rotation-move probability:                0 [-]
    Random rotation-move probability:         0 [-]
    Volume-move probability:                  0 [-]
    Reinsertion (CBMC) probability:           0 [-]
    Identity-change (CBMC) probability:       0 [-]
    Swap-move (CBMC) probability:             0 [-]
    Swap-move (CFCMC) probability:            0 [-]
    Swap-move (CFCMC/CBMC) probability:       0 [-]
    Gibbs Volume-move probability:            0 [-]
    Gibbs Swap-move (CBMC) probability:       0 [-]
    Gibbs Swap-move (CFCMC) probability:      0 [-]
    Gibbs Swap-move (CFCMC/CBMC) probability: 0 [-]
    Widom probability:                        1 [-]
    Widom (CFCMC) probability:                0 [-]
    Widom (CFCMC/CBMC) probability:           0 [-]
    Parallel Tempering Swap:                  0 [-]

    number of blocking-pockets: 4
        fractional s_x,s_y,s_z: 0,0,0 radius: 4
        fractional s_x,s_y,s_z: 0.5,0,0 radius: 0.5
        fractional s_x,s_y,s_z: 0,0.5,0 radius: 0.5
        fractional s_x,s_y,s_z: 0,0,0.5 radius: 0.5

    number of bonds: 0





Energy status Recomputed from scratch
===============================================================================

Total potential energy:      -9.812082e+01 [K]
    external field VDW:       0.000000e+00 [K]
    external field Real:      0.000000e+00 [K]
    framework-molecule VDW:  -9.812082e+01 [K]
    framework-molecule Real:  0.000000e+00 [K]
    molecule-molecule VDW:    0.000000e+00 [K]
    molecule-molecule Real:   0.000000e+00 [K]
    Van der Waals (Tail):     0.000000e+00 [K]
    Ewald Fourier:            0.000000e+00 [K]
    Ewald self:               0.000000e+00 [K]
    Ewald exclusion:          0.000000e+00 [K]
    intra VDW:                0.000000e+00 [K]
    intra Coulombic:          0.000000e+00 [K]
    polarization:             0.000000e+00 [K]
    dU/dlambda VDW:           0.000000e+00 [K]
    dU/dlambda Real:          0.000000e+00 [K]
    dU/dlambda Ewald:         0.000000e+00 [K]





Initialization: Current cycle: 0 out of 1000
===============================================================================

Box:      23.73420   0.00000   0.00000
           0.00000  23.73420   0.00000
           0.00000   0.00000  23.73420
Lengths:  23.73420  23.73420  23.73420
Angles:   90.00000  90.00000  90.00000
Rectangular boundary conditions

net charge:   0.00000000

component   0 (helium) lambda:  0 occupancy:  1 (1.000000)
    net charge:   0.00000000 [e]

Amount of molecules per component :
-------------------------------------------------------------------------------
Component 0 (helium)
    absolute adsorption:  1.000000e+00 molecules
                          6.181521e-02 mol/kg-framework
                          2.474217e-01 mg/g-framework
    excess adsorption:    1.000000e+00 molecules
                          6.181521e-02 mol/kg-framework
                          2.474217e-01 mg/g-framework

Total potential energy:      -9.812082e+01 [K]
-------------------------------------------------------------------------------
    external field VDW:       0.000000e+00 [K]
    external field Real:      0.000000e+00 [K]
    framework-molecule VDW:  -9.812082e+01 [K]
    framework-molecule Real:  0.000000e+00 [K]
    molecule-molecule VDW:    0.000000e+00 [K]
    molecule-molecule Real:   0.000000e+00 [K]
    Van der Waals (Tail):     0.000000e+00 [K]
    Ewald Fourier:            0.000000e+00 [K]
    Ewald self:               0.000000e+00 [K]
    Ewald exclusion:          0.000000e+00 [K]
    intra VDW:                0.000000e+00 [K]
    intra Coulombic:          0.000000e+00 [K]
    polarization:             0.000000e+00 [K]
    dU/dlambda VDW:           0.000000e+00 [K]
    dU/dlambda Real:          0.000000e+00 [K]
    dU/dlambda Ewald:         0.000000e+00 [K]


Current cycle: 0 out of 100000
===============================================================================

Box:      23.73420   0.00000   0.00000  Average:  23.73420   0.00000   0.00000
           0.00000  23.73420   0.00000             0.00000  23.73420   0.00000
           0.00000   0.00000  23.73420             0.00000   0.00000  23.73420
Lengths:  23.73420  23.73420  23.73420  Average:  23.73420  23.73420  23.73420
Angles:   90.00000  90.00000  90.00000  Average:  90.00000  90.00000  90.00000
Rectangular boundary conditions

net charge:   0.00000000

component 0 (helium) lambda:  0 occupancy:  1 (1.000000)
    net charge:   0.00000000 [e]

Amount of molecules per component :
-------------------------------------------------------------------------------
Component 0 (helium)
    absolute adsorption: 1.000000e+00 molecules (1.000000e+00 +/- 0.000000e+00)]
                         6.181521e-02 mol/kg    (6.181521e-02 +/- 0.000000e+00)]
                         2.474217e-01 mg/g      (2.474217e-01 +/- 0.000000e+00)]
    excess adsorption:   1.000000e+00 molecules (1.000000e+00 +/- 0.000000e+00)]
                         6.181521e-02 mol/kg    (6.181521e-02 +/- 0.000000e+00)]
                         2.474217e-01 mg/g      (2.474217e-01 +/- 0.000000e+00)]

Average pressure tensor: 
-------------------------------------------------------------------------------
 3.0980e+00  0.0000e+00  0.0000e+00 +/- 0.0000e+00 0.0000e+00 0.0000e+00 [bar]
 0.0000e+00  3.0980e+00  0.0000e+00 +/- 0.0000e+00 0.0000e+00 0.0000e+00 [bar]
 0.0000e+00  0.0000e+00  3.0980e+00 +/- 0.0000e+00 0.0000e+00 0.0000e+00 [bar]
Ideal-gas pressure:   3.097998e+00 +/ 0.000000e+00 [bar]
Excess pressure:      0.000000e+00 +/ 0.000000e+00 [bar]
Pressure:             3.097998e+00 +/ 0.000000e+00 [bar]

Total potential energy:   -9.812082e+01 (-9.812082e+01 +/- 0.000000e+00) [K]
-------------------------------------------------------------------------------
ExternalField-molecule
    Van der Waals:         0.000000e+00 ( 0.000000e+00 +/- 0.000000e+00) [K]
Framework-molecule
    Van der Waals:        -9.812082e+01 (-9.812082e+01 +/- 0.000000e+00) [K]
    Van der Waals (Tail):  0.000000e+00 ( 0.000000e+00 +/- 0.000000e+00) [K]
    Coulombic Real:        0.000000e+00 ( 0.000000e+00 +/- 0.000000e+00) [K]
    Coulombic Fourier:     0.000000e+00 ( 0.000000e+00 +/- 0.000000e+00) [K]
Molecule-molecule
    Van der Waals:         0.000000e+00 ( 0.000000e+00 +/- 0.000000e+00) [K]
    Van der Waals (Tail):  0.000000e+00 ( 0.000000e+00 +/- 0.000000e+00) [K]
    Coulombic Real:        0.000000e+00 ( 0.000000e+00 +/- 0.000000e+00) [K]
    Coulombic Fourier:     0.000000e+00 ( 0.000000e+00 +/- 0.000000e+00) [K]
    Molecule Intra:        0.000000e+00 ( 0.000000e+00 +/- 0.000000e+00) [K]

Current cycle: 5000 out of 100000
===============================================================================

Box:      23.73420   0.00000   0.00000  Average:  23.73420   0.00000   0.00000
           0.00000  23.73420   0.00000             0.00000  23.73420   0.00000
           0.00000   0.00000  23.73420             0.00000   0.00000  23.73420
Lengths:  23.73420  23.73420  23.73420  Average:  23.73420  23.73420  23.73420
Angles:   90.00000  90.00000  90.00000  Average:  90.00000  90.00000  90.00000
Rectangular boundary conditions

net charge:   0.00000000

component 0 (helium) lambda:  0 occupancy:  1 (1.000000)
    net charge:   0.00000000 [e]

Amount of molecules per component :
-------------------------------------------------------------------------------
Component 0 (helium)
    absolute adsorption: 1.000000e+00 molecules (1.000000e+00 +/- 0.000000e+00)]
                         6.181521e-02 mol/kg    (6.181521e-02 +/- 0.000000e+00)]
                         2.474217e-01 mg/g      (2.474217e-01 +/- 0.000000e+00)]
    excess adsorption:   1.000000e+00 molecules (1.000000e+00 +/- 0.000000e+00)]
                         6.181521e-02 mol/kg    (6.181521e-02 +/- 0.000000e+00)]
                         2.474217e-01 mg/g      (2.474217e-01 +/- 0.000000e+00)]

Average pressure tensor: 
-------------------------------------------------------------------------------
 1.0888e+00  8.9406e-02 -2.5963e-01 +/- 0.0000e+00 0.0000e+00 0.0000e+00 [bar]
 8.9406e-02  9.9728e-01  5.6235e-03 +/- 0.0000e+00 0.0000e+00 0.0000e+00 [bar]
-2.5963e-01  5.6235e-03  9.6688e-01 +/- 0.0000e+00 0.0000e+00 0.0000e+00 [bar]
Ideal-gas pressure:   3.097998e+00 +/ 0.000000e+00 [bar]
Excess pressure:     -2.080351e+00 +/ 0.000000e+00 [bar]
Pressure:             1.017647e+00 +/ 0.000000e+00 [bar]

Total potential energy:   -9.812082e+01 (-9.812082e+01 +/- 0.000000e+00) [K]
-------------------------------------------------------------------------------
ExternalField-molecule
    Van der Waals:         0.000000e+00 ( 0.000000e+00 +/- 0.000000e+00) [K]
Framework-molecule
    Van der Waals:        -9.812082e+01 (-9.812082e+01 +/- 0.000000e+00) [K]
    Van der Waals (Tail):  0.000000e+00 ( 0.000000e+00 +/- 0.000000e+00) [K]
    Coulombic Real:        0.000000e+00 ( 0.000000e+00 +/- 0.000000e+00) [K]
    Coulombic Fourier:     0.000000e+00 ( 0.000000e+00 +/- 0.000000e+00) [K]
Molecule-molecule
    Van der Waals:         0.000000e+00 ( 0.000000e+00 +/- 0.000000e+00) [K]
    Van der Waals (Tail):  0.000000e+00 ( 0.000000e+00 +/- 0.000000e+00) [K]
    Coulombic Real:        0.000000e+00 ( 0.000000e+00 +/- 0.000000e+00) [K]
    Coulombic Fourier:     0.000000e+00 ( 0.000000e+00 +/- 0.000000e+00) [K]
    Molecule Intra:        0.000000e+00 ( 0.000000e+00 +/- 0.000000e+00) [K]

Current cycle: 10000 out of 100000
===============================================================================

Box:      23.73420   0.00000   0.00000  Average:  23.73420   0.00000   0.00000
           0.00000  23.73420   0.00000             0.00000  23.73420   0.00000
           0.00000   0.00000  23.73420             0.00000   0.00000  23.73420
Lengths:  23.73420  23.73420  23.73420  Average:  23.73420  23.73420  23.73420
Angles:   90.00000  90.00000  90.00000  Average:  90.00000  90.00000  90.00000
Rectangular boundary conditions

net charge:   0.00000000

component 0 (helium) lambda:  0 occupancy:  1 (1.000000)
    net charge:   0.00000000 [e]

Amount of molecules per component :
-------------------------------------------------------------------------------
Component 0 (helium)
    absolute adsorption: 1.000000e+00 molecules (1.000000e+00 +/- 0.000000e+00)]
                         6.181521e-02 mol/kg    (6.181521e-02 +/- 0.000000e+00)]
                         2.474217e-01 mg/g      (2.474217e-01 +/- 0.000000e+00)]
    excess adsorption:   1.000000e+00 molecules (1.000000e+00 +/- 0.000000e+00)]
                         6.181521e-02 mol/kg    (6.181521e-02 +/- 0.000000e+00)]
                         2.474217e-01 mg/g      (2.474217e-01 +/- 0.000000e+00)]

Average pressure tensor: 
-------------------------------------------------------------------------------
 1.0886e+00  8.9415e-02 -2.5966e-01 +/- 0.0000e+00 0.0000e+00 0.0000e+00 [bar]
 8.9415e-02  9.9707e-01  5.6240e-03 +/- 0.0000e+00 0.0000e+00 0.0000e+00 [bar]
-2.5966e-01  5.6240e-03  9.6666e-01 +/- 0.0000e+00 0.0000e+00 0.0000e+00 [bar]
Ideal-gas pressure:   3.097998e+00 +/ 0.000000e+00 [bar]
Excess pressure:     -2.080559e+00 +/ 0.000000e+00 [bar]
Pressure:             1.017439e+00 +/ 0.000000e+00 [bar]

Total potential energy:   -9.812082e+01 (-9.812082e+01 +/- 0.000000e+00) [K]
-------------------------------------------------------------------------------
ExternalField-molecule
    Van der Waals:         0.000000e+00 ( 0.000000e+00 +/- 0.000000e+00) [K]
Framework-molecule
    Van der Waals:        -9.812082e+01 (-9.812082e+01 +/- 0.000000e+00) [K]
    Van der Waals (Tail):  0.000000e+00 ( 0.000000e+00 +/- 0.000000e+00) [K]
    Coulombic Real:        0.000000e+00 ( 0.000000e+00 +/- 0.000000e+00) [K]
    Coulombic Fourier:     0.000000e+00 ( 0.000000e+00 +/- 0.000000e+00) [K]
Molecule-molecule
    Van der Waals:         0.000000e+00 ( 0.000000e+00 +/- 0.000000e+00) [K]
    Van der Waals (Tail):  0.000000e+00 ( 0.000000e+00 +/- 0.000000e+00) [K]
    Coulombic Real:        0.000000e+00 ( 0.000000e+00 +/- 0.000000e+00) [K]
    Coulombic Fourier:     0.000000e+00 ( 0.000000e+00 +/- 0.000000e+00) [K]
    Molecule Intra:        0.000000e+00 ( 0.000000e+00 +/- 0.000000e+00) [K]

Current cycle: 15000 out of 100000
===============================================================================

Box:      23.73420   0.00000   0.00000  Average:  23.73420   0.00000   0.00000
           0.00000  23.73420   0.00000             0.00000  23.73420   0.00000
           0.00000   0.00000  23.73420             0.00000   0.00000  23.73420
Lengths:  23.73420  23.73420  23.73420  Average:  23.73420  23.73420  23.73420
Angles:   90.00000  90.00000  90.00000  Average:  90.00000  90.00000  90.00000
Rectangular boundary conditions

net charge:   0.00000000

component 0 (helium) lambda:  0 occupancy:  1 (1.000000)
    net charge:   0.00000000 [e]

Amount of molecules per component :
-------------------------------------------------------------------------------
Component 0 (helium)
    absolute adsorption: 1.000000e+00 molecules (1.000000e+00 +/- 0.000000e+00)]
                         6.181521e-02 mol/kg    (6.181521e-02 +/- 0.000000e+00)]
                         2.474217e-01 mg/g      (2.474217e-01 +/- 0.000000e+00)]
    excess adsorption:   1.000000e+00 molecules (1.000000e+00 +/- 0.000000e+00)]
                         6.181521e-02 mol/kg    (6.181521e-02 +/- 0.000000e+00)]
                         2.474217e-01 mg/g      (2.474217e-01 +/- 0.000000e+00)]

Average pressure tensor: 
-------------------------------------------------------------------------------
 1.0885e+00  8.9418e-02 -2.5967e-01 +/- 0.0000e+00 0.0000e+00 0.0000e+00 [bar]
 8.9418e-02  9.9700e-01  5.6242e-03 +/- 0.0000e+00 0.0000e+00 0.0000e+00 [bar]
-2.5967e-01  5.6242e-03  9.6659e-01 +/- 0.0000e+00 0.0000e+00 0.0000e+00 [bar]
Ideal-gas pressure:   3.097998e+00 +/ 0.000000e+00 [bar]
Excess pressure:     -2.080629e+00 +/ 0.000000e+00 [bar]
Pressure:             1.017370e+00 +/ 0.000000e+00 [bar]

Total potential energy:   -9.812082e+01 (-9.812082e+01 +/- 0.000000e+00) [K]
-------------------------------------------------------------------------------
ExternalField-molecule
    Van der Waals:         0.000000e+00 ( 0.000000e+00 +/- 0.000000e+00) [K]
Framework-molecule
    Van der Waals:        -9.812082e+01 (-9.812082e+01 +/- 0.000000e+00) [K]
    Van der Waals (Tail):  0.000000e+00 ( 0.000000e+00 +/- 0.000000e+00) [K]
    Coulombic Real:        0.000000e+00 ( 0.000000e+00 +/- 0.000000e+00) [K]
    Coulombic Fourier:     0.000000e+00 ( 0.000000e+00 +/- 0.000000e+00) [K]
Molecule-molecule
    Van der Waals:         0.000000e+00 ( 0.000000e+00 +/- 0.000000e+00) [K]
    Van der Waals (Tail):  0.000000e+00 ( 0.000000e+00 +/- 0.000000e+00) [K]
    Coulombic Real:        0.000000e+00 ( 0.000000e+00 +/- 0.000000e+00) [K]
    Coulombic Fourier:     0.000000e+00 ( 0.000000e+00 +/- 0.000000e+00) [K]
    Molecule Intra:        0.000000e+00 ( 0.000000e+00 +/- 0.000000e+00) [K]

Current cycle: 20000 out of 100000
===============================================================================

Box:      23.73420   0.00000   0.00000  Average:  23.73420   0.00000   0.00000
           0.00000  23.73420   0.00000             0.00000  23.73420   0.00000
           0.00000   0.00000  23.73420             0.00000   0.00000  23.73420
Lengths:  23.73420  23.73420  23.73420  Average:  23.73420  23.73420  23.73420
Angles:   90.00000  90.00000  90.00000  Average:  90.00000  90.00000  90.00000
Rectangular boundary conditions

net charge:   0.00000000

component 0 (helium) lambda:  0 occupancy:  1 (1.000000)
    net charge:   0.00000000 [e]

Amount of molecules per component :
-------------------------------------------------------------------------------
Component 0 (helium)
    absolute adsorption: 1.000000e+00 molecules (1.000000e+00 +/- 0.000000e+00)]
                         6.181521e-02 mol/kg    (6.181521e-02 +/- 0.000000e+00)]
                         2.474217e-01 mg/g      (2.474217e-01 +/- 0.000000e+00)]
    excess adsorption:   1.000000e+00 molecules (1.000000e+00 +/- 0.000000e+00)]
                         6.181521e-02 mol/kg    (6.181521e-02 +/- 0.000000e+00)]
                         2.474217e-01 mg/g      (2.474217e-01 +/- 0.000000e+00)]

Average pressure tensor: 
-------------------------------------------------------------------------------
 1.0885e+00  8.9419e-02 -2.5967e-01 +/- 0.0000e+00 0.0000e+00 0.0000e+00 [bar]
 8.9419e-02  9.9696e-01  5.6243e-03 +/- 0.0000e+00 0.0000e+00 0.0000e+00 [bar]
-2.5967e-01  5.6243e-03  9.6656e-01 +/- 0.0000e+00 0.0000e+00 0.0000e+00 [bar]
Ideal-gas pressure:   3.097998e+00 +/ 0.000000e+00 [bar]
Excess pressure:     -2.080663e+00 +/ 0.000000e+00 [bar]
Pressure:             1.017335e+00 +/ 0.000000e+00 [bar]

Total potential energy:   -9.812082e+01 (-9.812082e+01 +/- 0.000000e+00) [K]
-------------------------------------------------------------------------------
ExternalField-molecule
    Van der Waals:         0.000000e+00 ( 0.000000e+00 +/- 0.000000e+00) [K]
Framework-molecule
    Van der Waals:        -9.812082e+01 (-9.812082e+01 +/- 0.000000e+00) [K]
    Van der Waals (Tail):  0.000000e+00 ( 0.000000e+00 +/- 0.000000e+00) [K]
    Coulombic Real:        0.000000e+00 ( 0.000000e+00 +/- 0.000000e+00) [K]
    Coulombic Fourier:     0.000000e+00 ( 0.000000e+00 +/- 0.000000e+00) [K]
Molecule-molecule
    Van der Waals:         0.000000e+00 ( 0.000000e+00 +/- 0.000000e+00) [K]
    Van der Waals (Tail):  0.000000e+00 ( 0.000000e+00 +/- 0.000000e+00) [K]
    Coulombic Real:        0.000000e+00 ( 0.000000e+00 +/- 0.000000e+00) [K]
    Coulombic Fourier:     0.000000e+00 ( 0.000000e+00 +/- 0.000000e+00) [K]
    Molecule Intra:        0.000000e+00 ( 0.000000e+00 +/- 0.000000e+00) [K]

Current cycle: 25000 out of 100000
===============================================================================

Box:      23.73420   0.00000   0.00000  Average:  23.73420   0.00000   0.00000
           0.00000  23.73420   0.00000             0.00000  23.73420   0.00000
           0.00000   0.00000  23.73420             0.00000   0.00000  23.73420
Lengths:  23.73420  23.73420  23.73420  Average:  23.73420  23.73420  23.73420
Angles:   90.00000  90.00000  90.00000  Average:  90.00000  90.00000  90.00000
Rectangular boundary conditions

net charge:   0.00000000

component 0 (helium) lambda:  0 occupancy:  1 (1.000000)
    net charge:   0.00000000 [e]

Amount of molecules per component :
-------------------------------------------------------------------------------
Component 0 (helium)
    absolute adsorption: 1.000000e+00 molecules (1.000000e+00 +/- 0.000000e+00)]
                         6.181521e-02 mol/kg    (6.181521e-02 +/- 0.000000e+00)]
                         2.474217e-01 mg/g      (2.474217e-01 +/- 0.000000e+00)]
    excess adsorption:   1.000000e+00 molecules (1.000000e+00 +/- 0.000000e+00)]
                         6.181521e-02 mol/kg    (6.181521e-02 +/- 0.000000e+00)]
                         2.474217e-01 mg/g      (2.474217e-01 +/- 0.000000e+00)]

Average pressure tensor: 
-------------------------------------------------------------------------------
 1.0885e+00  8.9420e-02 -2.5967e-01 +/- 0.0000e+00 0.0000e+00 0.0000e+00 [bar]
 8.9420e-02  9.9694e-01  5.6244e-03 +/- 0.0000e+00 0.0000e+00 0.0000e+00 [bar]
-2.5967e-01  5.6244e-03  9.6653e-01 +/- 0.0000e+00 0.0000e+00 0.0000e+00 [bar]
Ideal-gas pressure:   3.097998e+00 +/ 0.000000e+00 [bar]
Excess pressure:     -2.080684e+00 +/ 0.000000e+00 [bar]
Pressure:             1.017314e+00 +/ 0.000000e+00 [bar]

Total potential energy:   -9.812082e+01 (-9.812082e+01 +/- 0.000000e+00) [K]
-------------------------------------------------------------------------------
ExternalField-molecule
    Van der Waals:         0.000000e+00 ( 0.000000e+00 +/- 0.000000e+00) [K]
Framework-molecule
    Van der Waals:        -9.812082e+01 (-9.812082e+01 +/- 0.000000e+00) [K]
    Van der Waals (Tail):  0.000000e+00 ( 0.000000e+00 +/- 0.000000e+00) [K]
    Coulombic Real:        0.000000e+00 ( 0.000000e+00 +/- 0.000000e+00) [K]
    Coulombic Fourier:     0.000000e+00 ( 0.000000e+00 +/- 0.000000e+00) [K]
Molecule-molecule
    Van der Waals:         0.000000e+00 ( 0.000000e+00 +/- 0.000000e+00) [K]
    Van der Waals (Tail):  0.000000e+00 ( 0.000000e+00 +/- 0.000000e+00) [K]
    Coulombic Real:        0.000000e+00 ( 0.000000e+00 +/- 0.000000e+00) [K]
    Coulombic Fourier:     0.000000e+00 ( 0.000000e+00 +/- 0.000000e+00) [K]
    Molecule Intra:        0.000000e+00 ( 0.000000e+00 +/- 0.000000e+00) [K]

Current cycle: 30000 out of 100000
===============================================================================

Box:      23.73420   0.00000   0.00000  Average:  23.73420   0.00000   0.00000
           0.00000  23.73420   0.00000             0.00000  23.73420   0.00000
           0.00000   0.00000  23.73420             0.00000   0.00000  23.73420
Lengths:  23.73420  23.73420  23.73420  Average:  23.73420  23.73420  23.73420
Angles:   90.00000  90.00000  90.00000  Average:  90.00000  90.00000  90.00000
Rectangular boundary conditions

net charge:   0.00000000

component 0 (helium) lambda:  0 occupancy:  1 (1.000000)
    net charge:   0.00000000 [e]

Amount of molecules per component :
-------------------------------------------------------------------------------
Component 0 (helium)
    absolute adsorption: 1.000000e+00 molecules (1.000000e+00 +/- 0.000000e+00)]
                         6.181521e-02 mol/kg    (6.181521e-02 +/- 0.000000e+00)]
                         2.474217e-01 mg/g      (2.474217e-01 +/- 0.000000e+00)]
    excess adsorption:   1.000000e+00 molecules (1.000000e+00 +/- 0.000000e+00)]
                         6.181521e-02 mol/kg    (6.181521e-02 +/- 0.000000e+00)]
                         2.474217e-01 mg/g      (2.474217e-01 +/- 0.000000e+00)]

Average pressure tensor: 
-------------------------------------------------------------------------------
 1.0885e+00  8.9421e-02 -2.5968e-01 +/- 0.0000e+00 0.0000e+00 0.0000e+00 [bar]
 8.9421e-02  9.9693e-01  5.6244e-03 +/- 0.0000e+00 0.0000e+00 0.0000e+00 [bar]
-2.5968e-01  5.6244e-03  9.6652e-01 +/- 0.0000e+00 0.0000e+00 0.0000e+00 [bar]
Ideal-gas pressure:   3.097998e+00 +/ 0.000000e+00 [bar]
Excess pressure:     -2.080698e+00 +/ 0.000000e+00 [bar]
Pressure:             1.017300e+00 +/ 0.000000e+00 [bar]

Total potential energy:   -9.812082e+01 (-9.812082e+01 +/- 0.000000e+00) [K]
-------------------------------------------------------------------------------
ExternalField-molecule
    Van der Waals:         0.000000e+00 ( 0.000000e+00 +/- 0.000000e+00) [K]
Framework-molecule
    Van der Waals:        -9.812082e+01 (-9.812082e+01 +/- 0.000000e+00) [K]
    Van der Waals (Tail):  0.000000e+00 ( 0.000000e+00 +/- 0.000000e+00) [K]
    Coulombic Real:        0.000000e+00 ( 0.000000e+00 +/- 0.000000e+00) [K]
    Coulombic Fourier:     0.000000e+00 ( 0.000000e+00 +/- 0.000000e+00) [K]
Molecule-molecule
    Van der Waals:         0.000000e+00 ( 0.000000e+00 +/- 0.000000e+00) [K]
    Van der Waals (Tail):  0.000000e+00 ( 0.000000e+00 +/- 0.000000e+00) [K]
    Coulombic Real:        0.000000e+00 ( 0.000000e+00 +/- 0.000000e+00) [K]
    Coulombic Fourier:     0.000000e+00 ( 0.000000e+00 +/- 0.000000e+00) [K]
    Molecule Intra:        0.000000e+00 ( 0.000000e+00 +/- 0.000000e+00) [K]

Current cycle: 35000 out of 100000
===============================================================================

Box:      23.73420   0.00000   0.00000  Average:  23.73420   0.00000   0.00000
           0.00000  23.73420   0.00000             0.00000  23.73420   0.00000
           0.00000   0.00000  23.73420             0.00000   0.00000  23.73420
Lengths:  23.73420  23.73420  23.73420  Average:  23.73420  23.73420  23.73420
Angles:   90.00000  90.00000  90.00000  Average:  90.00000  90.00000  90.00000
Rectangular boundary conditions

net charge:   0.00000000

component 0 (helium) lambda:  0 occupancy:  1 (1.000000)
    net charge:   0.00000000 [e]

Amount of molecules per component :
-------------------------------------------------------------------------------
Component 0 (helium)
    absolute adsorption: 1.000000e+00 molecules (1.000000e+00 +/- 0.000000e+00)]
                         6.181521e-02 mol/kg    (6.181521e-02 +/- 0.000000e+00)]
                         2.474217e-01 mg/g      (2.474217e-01 +/- 0.000000e+00)]
    excess adsorption:   1.000000e+00 molecules (1.000000e+00 +/- 0.000000e+00)]
                         6.181521e-02 mol/kg    (6.181521e-02 +/- 0.000000e+00)]
                         2.474217e-01 mg/g      (2.474217e-01 +/- 0.000000e+00)]

Average pressure tensor: 
-------------------------------------------------------------------------------
 1.0884e+00  8.9421e-02 -2.5968e-01 +/- 0.0000e+00 0.0000e+00 0.0000e+00 [bar]
 8.9421e-02  9.9692e-01  5.6244e-03 +/- 0.0000e+00 0.0000e+00 0.0000e+00 [bar]
-2.5968e-01  5.6244e-03  9.6651e-01 +/- 0.0000e+00 0.0000e+00 0.0000e+00 [bar]
Ideal-gas pressure:   3.097998e+00 +/ 0.000000e+00 [bar]
Excess pressure:     -2.080708e+00 +/ 0.000000e+00 [bar]
Pressure:             1.017290e+00 +/ 0.000000e+00 [bar]

Total potential energy:   -9.812082e+01 (-9.812082e+01 +/- 0.000000e+00) [K]
-------------------------------------------------------------------------------
ExternalField-molecule
    Van der Waals:         0.000000e+00 ( 0.000000e+00 +/- 0.000000e+00) [K]
Framework-molecule
    Van der Waals:        -9.812082e+01 (-9.812082e+01 +/- 0.000000e+00) [K]
    Van der Waals (Tail):  0.000000e+00 ( 0.000000e+00 +/- 0.000000e+00) [K]
    Coulombic Real:        0.000000e+00 ( 0.000000e+00 +/- 0.000000e+00) [K]
    Coulombic Fourier:     0.000000e+00 ( 0.000000e+00 +/- 0.000000e+00) [K]
Molecule-molecule
    Van der Waals:         0.000000e+00 ( 0.000000e+00 +/- 0.000000e+00) [K]
    Van der Waals (Tail):  0.000000e+00 ( 0.000000e+00 +/- 0.000000e+00) [K]
    Coulombic Real:        0.000000e+00 ( 0.000000e+00 +/- 0.000000e+00) [K]
    Coulombic Fourier:     0.000000e+00 ( 0.000000e+00 +/- 0.000000e+00) [K]
    Molecule Intra:        0.000000e+00 ( 0.000000e+00 +/- 0.000000e+00) [K]

Current cycle: 40000 out of 100000
===============================================================================

Box:      23.73420   0.00000   0.00000  Average:  23.73420   0.00000   0.00000
           0.00000  23.73420   0.00000             0.00000  23.73420   0.00000
           0.00000   0.00000  23.73420             0.00000   0.00000  23.73420
Lengths:  23.73420  23.73420  23.73420  Average:  23.73420  23.73420  23.73420
Angles:   90.00000  90.00000  90.00000  Average:  90.00000  90.00000  90.00000
Rectangular boundary conditions

net charge:   0.00000000

component 0 (helium) lambda:  0 occupancy:  1 (1.000000)
    net charge:   0.00000000 [e]

Amount of molecules per component :
-------------------------------------------------------------------------------
Component 0 (helium)
    absolute adsorption: 1.000000e+00 molecules (1.000000e+00 +/- 0.000000e+00)]
                         6.181521e-02 mol/kg    (6.181521e-02 +/- 0.000000e+00)]
                         2.474217e-01 mg/g      (2.474217e-01 +/- 0.000000e+00)]
    excess adsorption:   1.000000e+00 molecules (1.000000e+00 +/- 0.000000e+00)]
                         6.181521e-02 mol/kg    (6.181521e-02 +/- 0.000000e+00)]
                         2.474217e-01 mg/g      (2.474217e-01 +/- 0.000000e+00)]

Average pressure tensor: 
-------------------------------------------------------------------------------
 1.0884e+00  8.9421e-02 -2.5968e-01 +/- 0.0000e+00 0.0000e+00 0.0000e+00 [bar]
 8.9421e-02  9.9691e-01  5.6244e-03 +/- 0.0000e+00 0.0000e+00 0.0000e+00 [bar]
-2.5968e-01  5.6244e-03  9.6650e-01 +/- 0.0000e+00 0.0000e+00 0.0000e+00 [bar]
Ideal-gas pressure:   3.097998e+00 +/ 0.000000e+00 [bar]
Excess pressure:     -2.080715e+00 +/ 0.000000e+00 [bar]
Pressure:             1.017283e+00 +/ 0.000000e+00 [bar]

Total potential energy:   -9.812082e+01 (-9.812082e+01 +/- 0.000000e+00) [K]
-------------------------------------------------------------------------------
ExternalField-molecule
    Van der Waals:         0.000000e+00 ( 0.000000e+00 +/- 0.000000e+00) [K]
Framework-molecule
    Van der Waals:        -9.812082e+01 (-9.812082e+01 +/- 0.000000e+00) [K]
    Van der Waals (Tail):  0.000000e+00 ( 0.000000e+00 +/- 0.000000e+00) [K]
    Coulombic Real:        0.000000e+00 ( 0.000000e+00 +/- 0.000000e+00) [K]
    Coulombic Fourier:     0.000000e+00 ( 0.000000e+00 +/- 0.000000e+00) [K]
Molecule-molecule
    Van der Waals:         0.000000e+00 ( 0.000000e+00 +/- 0.000000e+00) [K]
    Van der Waals (Tail):  0.000000e+00 ( 0.000000e+00 +/- 0.000000e+00) [K]
    Coulombic Real:        0.000000e+00 ( 0.000000e+00 +/- 0.000000e+00) [K]
    Coulombic Fourier:     0.000000e+00 ( 0.000000e+00 +/- 0.000000e+00) [K]
    Molecule Intra:        0.000000e+00 ( 0.000000e+00 +/- 0.000000e+00) [K]

Current cycle: 45000 out of 100000
===============================================================================

Box:      23.73420   0.00000   0.00000  Average:  23.73420   0.00000   0.00000
           0.00000  23.73420   0.00000             0.00000  23.73420   0.00000
           0.00000   0.00000  23.73420             0.00000   0.00000  23.73420
Lengths:  23.73420  23.73420  23.73420  Average:  23.73420  23.73420  23.73420
Angles:   90.00000  90.00000  90.00000  Average:  90.00000  90.00000  90.00000
Rectangular boundary conditions

net charge:   0.00000000

component 0 (helium) lambda:  0 occupancy:  1 (1.000000)
    net charge:   0.00000000 [e]

Amount of molecules per component :
-------------------------------------------------------------------------------
Component 0 (helium)
    absolute adsorption: 1.000000e+00 molecules (1.000000e+00 +/- 0.000000e+00)]
                         6.181521e-02 mol/kg    (6.181521e-02 +/- 0.000000e+00)]
                         2.474217e-01 mg/g      (2.474217e-01 +/- 0.000000e+00)]
    excess adsorption:   1.000000e+00 molecules (1.000000e+00 +/- 0.000000e+00)]
                         6.181521e-02 mol/kg    (6.181521e-02 +/- 0.000000e+00)]
                         2.474217e-01 mg/g      (2.474217e-01 +/- 0.000000e+00)]

Average pressure tensor: 
-------------------------------------------------------------------------------
 1.0884e+00  8.9422e-02 -2.5968e-01 +/- 0.0000e+00 0.0000e+00 0.0000e+00 [bar]
 8.9422e-02  9.9691e-01  5.6245e-03 +/- 0.0000e+00 0.0000e+00 0.0000e+00 [bar]
-2.5968e-01  5.6245e-03  9.6650e-01 +/- 0.0000e+00 0.0000e+00 0.0000e+00 [bar]
Ideal-gas pressure:   3.097998e+00 +/ 0.000000e+00 [bar]
Excess pressure:     -2.080721e+00 +/ 0.000000e+00 [bar]
Pressure:             1.017277e+00 +/ 0.000000e+00 [bar]

Total potential energy:   -9.812082e+01 (-9.812082e+01 +/- 0.000000e+00) [K]
-------------------------------------------------------------------------------
ExternalField-molecule
    Van der Waals:         0.000000e+00 ( 0.000000e+00 +/- 0.000000e+00) [K]
Framework-molecule
    Van der Waals:        -9.812082e+01 (-9.812082e+01 +/- 0.000000e+00) [K]
    Van der Waals (Tail):  0.000000e+00 ( 0.000000e+00 +/- 0.000000e+00) [K]
    Coulombic Real:        0.000000e+00 ( 0.000000e+00 +/- 0.000000e+00) [K]
    Coulombic Fourier:     0.000000e+00 ( 0.000000e+00 +/- 0.000000e+00) [K]
Molecule-molecule
    Van der Waals:         0.000000e+00 ( 0.000000e+00 +/- 0.000000e+00) [K]
    Van der Waals (Tail):  0.000000e+00 ( 0.000000e+00 +/- 0.000000e+00) [K]
    Coulombic Real:        0.000000e+00 ( 0.000000e+00 +/- 0.000000e+00) [K]
    Coulombic Fourier:     0.000000e+00 ( 0.000000e+00 +/- 0.000000e+00) [K]
    Molecule Intra:        0.000000e+00 ( 0.000000e+00 +/- 0.000000e+00) [K]

Current cycle: 50000 out of 100000
===============================================================================

Box:      23.73420   0.00000   0.00000  Average:  23.73420   0.00000   0.00000
           0.00000  23.73420   0.00000             0.00000  23.73420   0.00000
           0.00000   0.00000  23.73420             0.00000   0.00000  23.73420
Lengths:  23.73420  23.73420  23.73420  Average:  23.73420  23.73420  23.73420
Angles:   90.00000  90.00000  90.00000  Average:  90.00000  90.00000  90.00000
Rectangular boundary conditions

net charge:   0.00000000

component 0 (helium) lambda:  0 occupancy:  1 (1.000000)
    net charge:   0.00000000 [e]

Amount of molecules per component :
-------------------------------------------------------------------------------
Component 0 (helium)
    absolute adsorption: 1.000000e+00 molecules (1.000000e+00 +/- 0.000000e+00)]
                         6.181521e-02 mol/kg    (6.181521e-02 +/- 0.000000e+00)]
                         2.474217e-01 mg/g      (2.474217e-01 +/- 0.000000e+00)]
    excess adsorption:   1.000000e+00 molecules (1.000000e+00 +/- 0.000000e+00)]
                         6.181521e-02 mol/kg    (6.181521e-02 +/- 0.000000e+00)]
                         2.474217e-01 mg/g      (2.474217e-01 +/- 0.000000e+00)]

Average pressure tensor: 
-------------------------------------------------------------------------------
 1.0884e+00  8.9422e-02 -2.5968e-01 +/- 1.4556e-04 6.4770e-06 1.8809e-05 [bar]
 8.9422e-02  9.9690e-01  5.6245e-03 +/- 6.4770e-06 1.5219e-04 4.0739e-07 [bar]
-2.5968e-01  5.6245e-03  9.6649e-01 +/- 1.8809e-05 4.0739e-07 1.5439e-04 [bar]
Ideal-gas pressure:   3.097998e+00 +/ 1.926007e-12 [bar]
Excess pressure:     -2.080726e+00 +/ 1.507102e-04 [bar]
Pressure:             1.017272e+00 +/ 1.507102e-04 [bar]

Total potential energy:   -9.812082e+01 (-9.812082e+01 +/- 2.266832e-13) [K]
-------------------------------------------------------------------------------
ExternalField-molecule
    Van der Waals:         0.000000e+00 ( 0.000000e+00 +/- 0.000000e+00) [K]
Framework-molecule
    Van der Waals:        -9.812082e+01 (-9.812082e+01 +/- 2.266832e-13) [K]
    Van der Waals (Tail):  0.000000e+00 ( 0.000000e+00 +/- 0.000000e+00) [K]
    Coulombic Real:        0.000000e+00 ( 0.000000e+00 +/- 0.000000e+00) [K]
    Coulombic Fourier:     0.000000e+00 ( 0.000000e+00 +/- 0.000000e+00) [K]
Molecule-molecule
    Van der Waals:         0.000000e+00 ( 0.000000e+00 +/- 0.000000e+00) [K]
    Van der Waals (Tail):  0.000000e+00 ( 0.000000e+00 +/- 0.000000e+00) [K]
    Coulombic Real:        0.000000e+00 ( 0.000000e+00 +/- 0.000000e+00) [K]
    Coulombic Fourier:     0.000000e+00 ( 0.000000e+00 +/- 0.000000e+00) [K]
    Molecule Intra:        0.000000e+00 ( 0.000000e+00 +/- 0.000000e+00) [K]

Current cycle: 55000 out of 100000
===============================================================================

Box:      23.73420   0.00000   0.00000  Average:  23.73420   0.00000   0.00000
           0.00000  23.73420   0.00000             0.00000  23.73420   0.00000
           0.00000   0.00000  23.73420             0.00000   0.00000  23.73420
Lengths:  23.73420  23.73420  23.73420  Average:  23.73420  23.73420  23.73420
Angles:   90.00000  90.00000  90.00000  Average:  90.00000  90.00000  90.00000
Rectangular boundary conditions

net charge:   0.00000000

component 0 (helium) lambda:  0 occupancy:  1 (1.000000)
    net charge:   0.00000000 [e]

Amount of molecules per component :
-------------------------------------------------------------------------------
Component 0 (helium)
    absolute adsorption: 1.000000e+00 molecules (1.000000e+00 +/- 3.378054e-16)]
                         6.181521e-02 mol/kg    (6.181521e-02 +/- 2.088151e-17)]
                         2.474217e-01 mg/g      (2.474217e-01 +/- 8.358038e-17)]
    excess adsorption:   1.000000e+00 molecules (1.000000e+00 +/- 3.378054e-16)]
                         6.181521e-02 mol/kg    (6.181521e-02 +/- 2.088151e-17)]
                         2.474217e-01 mg/g      (2.474217e-01 +/- 8.358038e-17)]

Average pressure tensor: 
-------------------------------------------------------------------------------
 1.0884e+00  8.9422e-02 -2.5968e-01 +/- 1.4442e-04 6.4264e-06 1.8662e-05 [bar]
 8.9422e-02  9.9690e-01  5.6245e-03 +/- 6.4264e-06 1.5100e-04 4.0421e-07 [bar]
-2.5968e-01  5.6245e-03  9.6649e-01 +/- 1.8662e-05 4.0421e-07 1.5318e-04 [bar]
Ideal-gas pressure:   3.097998e+00 +/ 1.468791e-12 [bar]
Excess pressure:     -2.080730e+00 +/ 1.495336e-04 [bar]
Pressure:             1.017269e+00 +/ 1.495336e-04 [bar]

Total potential energy:   -9.812082e+01 (-9.812082e+01 +/- 7.354576e-14) [K]
-------------------------------------------------------------------------------
ExternalField-molecule
    Van der Waals:         0.000000e+00 ( 0.000000e+00 +/- 0.000000e+00) [K]
Framework-molecule
    Van der Waals:        -9.812082e+01 (-9.812082e+01 +/- 7.354576e-14) [K]
    Van der Waals (Tail):  0.000000e+00 ( 0.000000e+00 +/- 0.000000e+00) [K]
    Coulombic Real:        0.000000e+00 ( 0.000000e+00 +/- 0.000000e+00) [K]
    Coulombic Fourier:     0.000000e+00 ( 0.000000e+00 +/- 0.000000e+00) [K]
Molecule-molecule
    Van der Waals:         0.000000e+00 ( 0.000000e+00 +/- 0.000000e+00) [K]
    Van der Waals (Tail):  0.000000e+00 ( 0.000000e+00 +/- 0.000000e+00) [K]
    Coulombic Real:        0.000000e+00 ( 0.000000e+00 +/- 0.000000e+00) [K]
    Coulombic Fourier:     0.000000e+00 ( 0.000000e+00 +/- 0.000000e+00) [K]
    Molecule Intra:        0.000000e+00 ( 0.000000e+00 +/- 0.000000e+00) [K]

Current cycle: 60000 out of 100000
===============================================================================

Box:      23.73420   0.00000   0.00000  Average:  23.73420   0.00000   0.00000
           0.00000  23.73420   0.00000             0.00000  23.73420   0.00000
           0.00000   0.00000  23.73420             0.00000   0.00000  23.73420
Lengths:  23.73420  23.73420  23.73420  Average:  23.73420  23.73420  23.73420
Angles:   90.00000  90.00000  90.00000  Average:  90.00000  90.00000  90.00000
Rectangular boundary conditions

net charge:   0.00000000

component 0 (helium) lambda:  0 occupancy:  1 (1.000000)
    net charge:   0.00000000 [e]

Amount of molecules per component :
-------------------------------------------------------------------------------
Component 0 (helium)
    absolute adsorption: 1.000000e+00 molecules (1.000000e+00 +/- 0.000000e+00)]
                         6.181521e-02 mol/kg    (6.181521e-02 +/- 0.000000e+00)]
                         2.474217e-01 mg/g      (2.474217e-01 +/- 0.000000e+00)]
    excess adsorption:   1.000000e+00 molecules (1.000000e+00 +/- 0.000000e+00)]
                         6.181521e-02 mol/kg    (6.181521e-02 +/- 0.000000e+00)]
                         2.474217e-01 mg/g      (2.474217e-01 +/- 0.000000e+00)]

Average pressure tensor: 
-------------------------------------------------------------------------------
 1.0884e+00  8.9422e-02 -2.5968e-01 +/- 1.4412e-04 6.4132e-06 1.8624e-05 [bar]
 8.9422e-02  9.9689e-01  5.6245e-03 +/- 6.4132e-06 1.5069e-04 4.0338e-07 [bar]
-2.5968e-01  5.6245e-03  9.6648e-01 +/- 1.8624e-05 4.0338e-07 1.5287e-04 [bar]
Ideal-gas pressure:   3.097998e+00 +/ 1.752936e-15 [bar]
Excess pressure:     -2.080733e+00 +/ 1.492257e-04 [bar]
Pressure:             1.017265e+00 +/ 1.492257e-04 [bar]

Total potential energy:   -9.812082e+01 (-9.812082e+01 +/- 5.200470e-14) [K]
-------------------------------------------------------------------------------
ExternalField-molecule
    Van der Waals:         0.000000e+00 ( 0.000000e+00 +/- 0.000000e+00) [K]
Framework-molecule
    Van der Waals:        -9.812082e+01 (-9.812082e+01 +/- 5.200470e-14) [K]
    Van der Waals (Tail):  0.000000e+00 ( 0.000000e+00 +/- 0.000000e+00) [K]
    Coulombic Real:        0.000000e+00 ( 0.000000e+00 +/- 0.000000e+00) [K]
    Coulombic Fourier:     0.000000e+00 ( 0.000000e+00 +/- 0.000000e+00) [K]
Molecule-molecule
    Van der Waals:         0.000000e+00 ( 0.000000e+00 +/- 0.000000e+00) [K]
    Van der Waals (Tail):  0.000000e+00 ( 0.000000e+00 +/- 0.000000e+00) [K]
    Coulombic Real:        0.000000e+00 ( 0.000000e+00 +/- 0.000000e+00) [K]
    Coulombic Fourier:     0.000000e+00 ( 0.000000e+00 +/- 0.000000e+00) [K]
    Molecule Intra:        0.000000e+00 ( 0.000000e+00 +/- 0.000000e+00) [K]

Current cycle: 65000 out of 100000
===============================================================================

Box:      23.73420   0.00000   0.00000  Average:  23.73420   0.00000   0.00000
           0.00000  23.73420   0.00000             0.00000  23.73420   0.00000
           0.00000   0.00000  23.73420             0.00000   0.00000  23.73420
Lengths:  23.73420  23.73420  23.73420  Average:  23.73420  23.73420  23.73420
Angles:   90.00000  90.00000  90.00000  Average:  90.00000  90.00000  90.00000
Rectangular boundary conditions

net charge:   0.00000000

component 0 (helium) lambda:  0 occupancy:  1 (1.000000)
    net charge:   0.00000000 [e]

Amount of molecules per component :
-------------------------------------------------------------------------------
Component 0 (helium)
    absolute adsorption: 1.000000e+00 molecules (1.000000e+00 +/- 0.000000e+00)]
                         6.181521e-02 mol/kg    (6.181521e-02 +/- 0.000000e+00)]
                         2.474217e-01 mg/g      (2.474217e-01 +/- 0.000000e+00)]
    excess adsorption:   1.000000e+00 molecules (1.000000e+00 +/- 0.000000e+00)]
                         6.181521e-02 mol/kg    (6.181521e-02 +/- 0.000000e+00)]
                         2.474217e-01 mg/g      (2.474217e-01 +/- 0.000000e+00)]

Average pressure tensor: 
-------------------------------------------------------------------------------
 1.0884e+00  8.9422e-02 -2.5968e-01 +/- 1.4434e-04 6.4226e-06 1.8651e-05 [bar]
 8.9422e-02  9.9689e-01  5.6245e-03 +/- 6.4226e-06 1.5091e-04 4.0397e-07 [bar]
-2.5968e-01  5.6245e-03  9.6648e-01 +/- 1.8651e-05 4.0397e-07 1.5309e-04 [bar]
Ideal-gas pressure:   3.097998e+00 +/ 2.138582e-13 [bar]
Excess pressure:     -2.080735e+00 +/ 1.494464e-04 [bar]
Pressure:             1.017263e+00 +/ 1.494464e-04 [bar]

Total potential energy:   -9.812082e+01 (-9.812082e+01 +/- 1.040094e-13) [K]
-------------------------------------------------------------------------------
ExternalField-molecule
    Van der Waals:         0.000000e+00 ( 0.000000e+00 +/- 0.000000e+00) [K]
Framework-molecule
    Van der Waals:        -9.812082e+01 (-9.812082e+01 +/- 1.040094e-13) [K]
    Van der Waals (Tail):  0.000000e+00 ( 0.000000e+00 +/- 0.000000e+00) [K]
    Coulombic Real:        0.000000e+00 ( 0.000000e+00 +/- 0.000000e+00) [K]
    Coulombic Fourier:     0.000000e+00 ( 0.000000e+00 +/- 0.000000e+00) [K]
Molecule-molecule
    Van der Waals:         0.000000e+00 ( 0.000000e+00 +/- 0.000000e+00) [K]
    Van der Waals (Tail):  0.000000e+00 ( 0.000000e+00 +/- 0.000000e+00) [K]
    Coulombic Real:        0.000000e+00 ( 0.000000e+00 +/- 0.000000e+00) [K]
    Coulombic Fourier:     0.000000e+00 ( 0.000000e+00 +/- 0.000000e+00) [K]
    Molecule Intra:        0.000000e+00 ( 0.000000e+00 +/- 0.000000e+00) [K]

Current cycle: 70000 out of 100000
===============================================================================

Box:      23.73420   0.00000   0.00000  Average:  23.73420   0.00000   0.00000
           0.00000  23.73420   0.00000             0.00000  23.73420   0.00000
           0.00000   0.00000  23.73420             0.00000   0.00000  23.73420
Lengths:  23.73420  23.73420  23.73420  Average:  23.73420  23.73420  23.73420
Angles:   90.00000  90.00000  90.00000  Average:  90.00000  90.00000  90.00000
Rectangular boundary conditions

net charge:   0.00000000

component 0 (helium) lambda:  0 occupancy:  1 (1.000000)
    net charge:   0.00000000 [e]

Amount of molecules per component :
-------------------------------------------------------------------------------
Component 0 (helium)
    absolute adsorption: 1.000000e+00 molecules (1.000000e+00 +/- 0.000000e+00)]
                         6.181521e-02 mol/kg    (6.181521e-02 +/- 0.000000e+00)]
                         2.474217e-01 mg/g      (2.474217e-01 +/- 0.000000e+00)]
    excess adsorption:   1.000000e+00 molecules (1.000000e+00 +/- 0.000000e+00)]
                         6.181521e-02 mol/kg    (6.181521e-02 +/- 0.000000e+00)]
                         2.474217e-01 mg/g      (2.474217e-01 +/- 0.000000e+00)]

Average pressure tensor: 
-------------------------------------------------------------------------------
 1.0884e+00  8.9422e-02 -2.5968e-01 +/- 8.0204e-05 3.5689e-06 1.0364e-05 [bar]
 8.9422e-02  9.9689e-01  5.6245e-03 +/- 3.5689e-06 8.3857e-05 2.2448e-07 [bar]
-2.5968e-01  5.6245e-03  9.6648e-01 +/- 1.0364e-05 2.2448e-07 8.5070e-05 [bar]
Ideal-gas pressure:   3.097998e+00 +/ 1.058823e-12 [bar]
Excess pressure:     -2.080738e+00 +/ 8.304349e-05 [bar]
Pressure:             1.017261e+00 +/ 8.304349e-05 [bar]

Total potential energy:   -9.812082e+01 (-9.812082e+01 +/- 1.285089e-13) [K]
-------------------------------------------------------------------------------
ExternalField-molecule
    Van der Waals:         0.000000e+00 ( 0.000000e+00 +/- 0.000000e+00) [K]
Framework-molecule
    Van der Waals:        -9.812082e+01 (-9.812082e+01 +/- 1.285089e-13) [K]
    Van der Waals (Tail):  0.000000e+00 ( 0.000000e+00 +/- 0.000000e+00) [K]
    Coulombic Real:        0.000000e+00 ( 0.000000e+00 +/- 0.000000e+00) [K]
    Coulombic Fourier:     0.000000e+00 ( 0.000000e+00 +/- 0.000000e+00) [K]
Molecule-molecule
    Van der Waals:         0.000000e+00 ( 0.000000e+00 +/- 0.000000e+00) [K]
    Van der Waals (Tail):  0.000000e+00 ( 0.000000e+00 +/- 0.000000e+00) [K]
    Coulombic Real:        0.000000e+00 ( 0.000000e+00 +/- 0.000000e+00) [K]
    Coulombic Fourier:     0.000000e+00 ( 0.000000e+00 +/- 0.000000e+00) [K]
    Molecule Intra:        0.000000e+00 ( 0.000000e+00 +/- 0.000000e+00) [K]

Current cycle: 75000 out of 100000
===============================================================================

Box:      23.73420   0.00000   0.00000  Average:  23.73420   0.00000   0.00000
           0.00000  23.73420   0.00000             0.00000  23.73420   0.00000
           0.00000   0.00000  23.73420             0.00000   0.00000  23.73420
Lengths:  23.73420  23.73420  23.73420  Average:  23.73420  23.73420  23.73420
Angles:   90.00000  90.00000  90.00000  Average:  90.00000  90.00000  90.00000
Rectangular boundary conditions

net charge:   0.00000000

component 0 (helium) lambda:  0 occupancy:  1 (1.000000)
    net charge:   0.00000000 [e]

Amount of molecules per component :
-------------------------------------------------------------------------------
Component 0 (helium)
    absolute adsorption: 1.000000e+00 molecules (1.000000e+00 +/- 0.000000e+00)]
                         6.181521e-02 mol/kg    (6.181521e-02 +/- 0.000000e+00)]
                         2.474217e-01 mg/g      (2.474217e-01 +/- 0.000000e+00)]
    excess adsorption:   1.000000e+00 molecules (1.000000e+00 +/- 0.000000e+00)]
                         6.181521e-02 mol/kg    (6.181521e-02 +/- 0.000000e+00)]
                         2.474217e-01 mg/g      (2.474217e-01 +/- 0.000000e+00)]

Average pressure tensor: 
-------------------------------------------------------------------------------
 1.0884e+00  8.9422e-02 -2.5968e-01 +/- 7.9992e-05 3.5595e-06 1.0337e-05 [bar]
 8.9422e-02  9.9689e-01  5.6245e-03 +/- 3.5595e-06 8.3635e-05 2.2388e-07 [bar]
-2.5968e-01  5.6245e-03  9.6648e-01 +/- 1.0337e-05 2.2388e-07 8.4845e-05 [bar]
Ideal-gas pressure:   3.097998e+00 +/ 8.133031e-13 [bar]
Excess pressure:     -2.080740e+00 +/ 8.282378e-05 [bar]
Pressure:             1.017259e+00 +/ 8.282378e-05 [bar]

Total potential energy:   -9.812082e+01 (-9.812082e+01 +/- 4.709959e-14) [K]
-------------------------------------------------------------------------------
ExternalField-molecule
    Van der Waals:         0.000000e+00 ( 0.000000e+00 +/- 0.000000e+00) [K]
Framework-molecule
    Van der Waals:        -9.812082e+01 (-9.812082e+01 +/- 4.709959e-14) [K]
    Van der Waals (Tail):  0.000000e+00 ( 0.000000e+00 +/- 0.000000e+00) [K]
    Coulombic Real:        0.000000e+00 ( 0.000000e+00 +/- 0.000000e+00) [K]
    Coulombic Fourier:     0.000000e+00 ( 0.000000e+00 +/- 0.000000e+00) [K]
Molecule-molecule
    Van der Waals:         0.000000e+00 ( 0.000000e+00 +/- 0.000000e+00) [K]
    Van der Waals (Tail):  0.000000e+00 ( 0.000000e+00 +/- 0.000000e+00) [K]
    Coulombic Real:        0.000000e+00 ( 0.000000e+00 +/- 0.000000e+00) [K]
    Coulombic Fourier:     0.000000e+00 ( 0.000000e+00 +/- 0.000000e+00) [K]
    Molecule Intra:        0.000000e+00 ( 0.000000e+00 +/- 0.000000e+00) [K]

Current cycle: 80000 out of 100000
===============================================================================

Box:      23.73420   0.00000   0.00000  Average:  23.73420   0.00000   0.00000
           0.00000  23.73420   0.00000             0.00000  23.73420   0.00000
           0.00000   0.00000  23.73420             0.00000   0.00000  23.73420
Lengths:  23.73420  23.73420  23.73420  Average:  23.73420  23.73420  23.73420
Angles:   90.00000  90.00000  90.00000  Average:  90.00000  90.00000  90.00000
Rectangular boundary conditions

net charge:   0.00000000

component 0 (helium) lambda:  0 occupancy:  1 (1.000000)
    net charge:   0.00000000 [e]

Amount of molecules per component :
-------------------------------------------------------------------------------
Component 0 (helium)
    absolute adsorption: 1.000000e+00 molecules (1.000000e+00 +/- 0.000000e+00)]
                         6.181521e-02 mol/kg    (6.181521e-02 +/- 0.000000e+00)]
                         2.474217e-01 mg/g      (2.474217e-01 +/- 0.000000e+00)]
    excess adsorption:   1.000000e+00 molecules (1.000000e+00 +/- 0.000000e+00)]
                         6.181521e-02 mol/kg    (6.181521e-02 +/- 0.000000e+00)]
                         2.474217e-01 mg/g      (2.474217e-01 +/- 0.000000e+00)]

Average pressure tensor: 
-------------------------------------------------------------------------------
 1.0884e+00  8.9422e-02 -2.5968e-01 +/- 7.9932e-05 3.5568e-06 1.0329e-05 [bar]
 8.9422e-02  9.9689e-01  5.6245e-03 +/- 3.5568e-06 8.3573e-05 2.2372e-07 [bar]
-2.5968e-01  5.6245e-03  9.6648e-01 +/- 1.0329e-05 2.2372e-07 8.4782e-05 [bar]
Ideal-gas pressure:   3.097998e+00 +/ 1.058398e-15 [bar]
Excess pressure:     -2.080741e+00 +/ 8.276252e-05 [bar]
Pressure:             1.017257e+00 +/ 8.276252e-05 [bar]

Total potential energy:   -9.812082e+01 (-9.812082e+01 +/- 0.000000e+00) [K]
-------------------------------------------------------------------------------
ExternalField-molecule
    Van der Waals:         0.000000e+00 ( 0.000000e+00 +/- 0.000000e+00) [K]
Framework-molecule
    Van der Waals:        -9.812082e+01 (-9.812082e+01 +/- 0.000000e+00) [K]
    Van der Waals (Tail):  0.000000e+00 ( 0.000000e+00 +/- 0.000000e+00) [K]
    Coulombic Real:        0.000000e+00 ( 0.000000e+00 +/- 0.000000e+00) [K]
    Coulombic Fourier:     0.000000e+00 ( 0.000000e+00 +/- 0.000000e+00) [K]
Molecule-molecule
    Van der Waals:         0.000000e+00 ( 0.000000e+00 +/- 0.000000e+00) [K]
    Van der Waals (Tail):  0.000000e+00 ( 0.000000e+00 +/- 0.000000e+00) [K]
    Coulombic Real:        0.000000e+00 ( 0.000000e+00 +/- 0.000000e+00) [K]
    Coulombic Fourier:     0.000000e+00 ( 0.000000e+00 +/- 0.000000e+00) [K]
    Molecule Intra:        0.000000e+00 ( 0.000000e+00 +/- 0.000000e+00) [K]

Current cycle: 85000 out of 100000
===============================================================================

Box:      23.73420   0.00000   0.00000  Average:  23.73420   0.00000   0.00000
           0.00000  23.73420   0.00000             0.00000  23.73420   0.00000
           0.00000   0.00000  23.73420             0.00000   0.00000  23.73420
Lengths:  23.73420  23.73420  23.73420  Average:  23.73420  23.73420  23.73420
[...]

Current cycle: 90000 out of 100000
===============================================================================

Box:      23.73420   0.00000   0.00000  Average:  23.73420   0.00000   0.00000
           0.00000  23.73420   0.00000             0.00000  23.73420   0.00000
           0.00000   0.00000  23.73420             0.00000   0.00000  23.73420
Lengths:  23.73420  23.73420  23.73420  Average:  23.73420  23.73420  23.73420
Angles:   90.00000  90.00000  90.00000  Average:  90.00000  90.00000  90.00000
Rectangular boundary conditions

net charge:   0.00000000

component 0 (helium) lambda:  0 occupancy:  1 (1.000000)
    net charge:   0.00000000 [e]

Amount of molecules per component :
-------------------------------------------------------------------------------
Component 0 (helium)
    absolute adsorption: 1.000000e+00 molecules (1.000000e+00 +/- 0.000000e+00)]
                         6.181521e-02 mol/kg    (6.181521e-02 +/- 0.000000e+00)]
                         2.474217e-01 mg/g      (2.474217e-01 +/- 0.000000e+00)]
    excess adsorption:   1.000000e+00 molecules (1.000000e+00 +/- 0.000000e+00)]
                         6.181521e-02 mol/kg    (6.181521e-02 +/- 0.000000e+00)]
                         2.474217e-01 mg/g      (2.474217e-01 +/- 0.000000e+00)]

Average pressure tensor: 
-------------------------------------------------------------------------------
 1.0884e+00  8.9423e-02 -2.5968e-01 +/- 5.5873e-05 2.4862e-06 7.2199e-06 [bar]
 8.9423e-02  9.9688e-01  5.6245e-03 +/- 2.4862e-06 5.8418e-05 1.5638e-07 [bar]
-2.5968e-01  5.6245e-03  9.6647e-01 +/- 7.2199e-06 1.5638e-07 5.9263e-05 [bar]
Ideal-gas pressure:   3.097998e+00 +/ 7.349844e-13 [bar]
Excess pressure:     -2.080744e+00 +/ 5.785115e-05 [bar]
Pressure:             1.017254e+00 +/ 5.785115e-05 [bar]

Total potential energy:   -9.812082e+01 (-9.812082e+01 +/- 8.553570e-14) [K]
-------------------------------------------------------------------------------
ExternalField-molecule
    Van der Waals:         0.000000e+00 ( 0.000000e+00 +/- 0.000000e+00) [K]
Framework-molecule
    Van der Waals:        -9.812082e+01 (-9.812082e+01 +/- 8.553570e-14) [K]
    Van der Waals (Tail):  0.000000e+00 ( 0.000000e+00 +/- 0.000000e+00) [K]
    Coulombic Real:        0.000000e+00 ( 0.000000e+00 +/- 0.000000e+00) [K]
    Coulombic Fourier:     0.000000e+00 ( 0.000000e+00 +/- 0.000000e+00) [K]
Molecule-molecule
    Van der Waals:         0.000000e+00 ( 0.000000e+00 +/- 0.000000e+00) [K]
    Van der Waals (Tail):  0.000000e+00 ( 0.000000e+00 +/- 0.000000e+00) [K]
    Coulombic Real:        0.000000e+00 ( 0.000000e+00 +/- 0.000000e+00) [K]
    Coulombic Fourier:     0.000000e+00 ( 0.000000e+00 +/- 0.000000e+00) [K]
    Molecule Intra:        0.000000e+00 ( 0.000000e+00 +/- 0.000000e+00) [K]

Current cycle: 95000 out of 100000
===============================================================================

Box:      23.73420   0.00000   0.00000  Average:  23.73420   0.00000   0.00000
           0.00000  23.73420   0.00000             0.00000  23.73420   0.00000
           0.00000   0.00000  23.73420             0.00000   0.00000  23.73420
Lengths:  23.73420  23.73420  23.73420  Average:  23.73420  23.73420  23.73420
Angles:   90.00000  90.00000  90.00000  Average:  90.00000  90.00000  90.00000
Rectangular boundary conditions

net charge:   0.00000000

component 0 (helium) lambda:  0 occupancy:  1 (1.000000)
    net charge:   0.00000000 [e]

Amount of molecules per component :
-------------------------------------------------------------------------------
Component 0 (helium)
    absolute adsorption: 1.000000e+00 molecules (1.000000e+00 +/- 0.000000e+00)]
                         6.181521e-02 mol/kg    (6.181521e-02 +/- 0.000000e+00)]
                         2.474217e-01 mg/g      (2.474217e-01 +/- 0.000000e+00)]
    excess adsorption:   1.000000e+00 molecules (1.000000e+00 +/- 0.000000e+00)]
                         6.181521e-02 mol/kg    (6.181521e-02 +/- 0.000000e+00)]
                         2.474217e-01 mg/g      (2.474217e-01 +/- 0.000000e+00)]

Average pressure tensor: 
-------------------------------------------------------------------------------
 1.0884e+00  8.9423e-02 -2.5968e-01 +/- 5.5806e-05 2.4833e-06 7.2113e-06 [bar]
 8.9423e-02  9.9688e-01  5.6245e-03 +/- 2.4833e-06 5.8348e-05 1.5619e-07 [bar]
-2.5968e-01  5.6245e-03  9.6647e-01 +/- 7.2113e-06 1.5619e-07 5.9192e-05 [bar]
Ideal-gas pressure:   3.097998e+00 +/ 5.669750e-13 [bar]
Excess pressure:     -2.080745e+00 +/ 5.778209e-05 [bar]
Pressure:             1.017253e+00 +/ 5.778209e-05 [bar]

Total potential energy:   -9.812082e+01 (-9.812082e+01 +/- 3.000791e-14) [K]
-------------------------------------------------------------------------------
ExternalField-molecule
    Van der Waals:         0.000000e+00 ( 0.000000e+00 +/- 0.000000e+00) [K]
Framework-molecule
    Van der Waals:        -9.812082e+01 (-9.812082e+01 +/- 3.000791e-14) [K]
    Van der Waals (Tail):  0.000000e+00 ( 0.000000e+00 +/- 0.000000e+00) [K]
    Coulombic Real:        0.000000e+00 ( 0.000000e+00 +/- 0.000000e+00) [K]
    Coulombic Fourier:     0.000000e+00 ( 0.000000e+00 +/- 0.000000e+00) [K]
Molecule-molecule
    Van der Waals:         0.000000e+00 ( 0.000000e+00 +/- 0.000000e+00) [K]
    Van der Waals (Tail):  0.000000e+00 ( 0.000000e+00 +/- 0.000000e+00) [K]
    Coulombic Real:        0.000000e+00 ( 0.000000e+00 +/- 0.000000e+00) [K]
    Coulombic Fourier:     0.000000e+00 ( 0.000000e+00 +/- 0.000000e+00) [K]
    Molecule Intra:        0.000000e+00 ( 0.000000e+00 +/- 0.000000e+00) [K]


Energy statistics           |    Energy [K] | Recomputed [K] |     Drift [K] |
=============================================================================
Total potential energy      | -9.812082e+01 |  -9.812082e+01 |  0.000000e+00 |
    external field VDW      |  0.000000e+00 |   0.000000e+00 |  0.000000e+00 |
    external field Real     |  0.000000e+00 |   0.000000e+00 |  0.000000e+00 |
    framework-molecule VDW  | -9.812082e+01 |  -9.812082e+01 |  0.000000e+00 |
    framework-molecule Real |  0.000000e+00 |   0.000000e+00 |  0.000000e+00 |
    molecule-molecule VDW   |  0.000000e+00 |   0.000000e+00 |  0.000000e+00 |
    molecule-molecule Real  |  0.000000e+00 |   0.000000e+00 |  0.000000e+00 |
    Van der Waals (Tail):   |  0.000000e+00 |   0.000000e+00 |  0.000000e+00 |
    Ewald Fourier           |  0.000000e+00 |   0.000000e+00 |  0.000000e+00 |
    Ewald self              |  0.000000e+00 |   0.000000e+00 |  0.000000e+00 |
    Ewald exclusion         |  0.000000e+00 |   0.000000e+00 |  0.000000e+00 |
    intra VDW               |  0.000000e+00 |   0.000000e+00 |  0.000000e+00 |
    intra Coulombic         |  0.000000e+00 |   0.000000e+00 |  0.000000e+00 |
    polarization            |  0.000000e+00 |   0.000000e+00 |  0.000000e+00 |
    dU/dlambda VDW          |  0.000000e+00 |   0.000000e+00 |  0.000000e+00 |
    dU/dlambda Real         |  0.000000e+00 |   0.000000e+00 |  0.000000e+00 |
    dU/dlambda Ewald        |  0.000000e+00 |   0.000000e+00 |  0.000000e+00 |
-----------------------------------------------------------------------------


Monte-Carlo moves statistics
===============================================================================

Component 0 [helium]
    Widom (CBMC) all:             2000000
    Widom (CBMC) total:             2e+06
    Widom (CBMC) constructed:     1768211
    Widom (CBMC) accepted:              0
    Widom (CBMC) fraction:       0.000000
    Widom (CBMC) max-change:     0.000000

    Widom insertion Rosenbluth weight  statistics:
    ---------------------------------------------------------------------------
        Block[  0]  3.968029e-01
        Block[  1]  3.967536e-01
        Block[  2]  3.967319e-01
        Block[  3]  3.967326e-01
        Block[  4]  3.972914e-01
    ---------------------------------------------------------------------------
    Average Rosenbluth weight:    3.968625e-01 +/-  2.997895e-04 [-]


    Widom insertion chemical potential  statistics:
    ---------------------------------------------------------------------------
        Block[  0] 277.2948990464482
        Block[  1] 277.3321844563468
        Block[  2] 277.3485865293995
        Block[  3] 277.34804414347474
        Block[  4] 276.9258400416793
    ---------------------------------------------------------------------------
    Excess chemical potential:    2.772499e+02 +/-  2.265306e-01 [K]
    Ideal chemical potential:    -2.850228e+03 +/-  1.737170e-13 [K]
    Total chemical potential:    -2.572978e+03 +/-  2.265306e-01 [K]
    Imposed chemical potential:  -inf [K]
    ---------------------------------------------------------------------------
    Excess chemical potential:    2.305184e+00 +/-  1.883481e-03 [kJ/mol]
    Ideal chemical potential:    -2.369812e+01 +/-  1.444364e-15 [kJ/mol]
    Total chemical potential:    -2.139294e+01 +/-  1.883481e-03 [kJ/mol]
    Imposed chemical potential:  -inf [kJ/mol]
    ---------------------------------------------------------------------------
    Imposed fugacity:             0.000000e+00 [Pa]
    Measured fugacity:            7.806226e+05 +/-  5.892172e+02 [Pa]




Production run counting of the MC moves
===============================================================================

Component 0 helium

    Widom CBMC:                      100.000000 [%]


Production run counting of the MC moves summed over systems and components
===============================================================================

Widom CBMC:                      100.000000 [%]

Production count MC-steps:          2000000 [-]

Translation:                              0 [-]
Random translation:                       0 [-]
Rotation:                                 0 [-]
Random rotation:                          0 [-]
Reinsertion CBMC:                         0 [-]
Insertion:                                0 [-]
Deletion:                                 0 [-]
Insertion CBMC:                           0 [-]
Deletion CBMC:                            0 [-]
Insertion/deletion CFCMC:                 0 [-]
Insertion/deletion CB/CFCMC:              0 [-]
Gibbs-swap CBMC:                          0 [-]
Gibbs-swap CFCMC:                         0 [-]
Widom CBMC:                         2000000 [-]
Widom CFCMC:                              0 [-]
Widom CB/CFCMC:                           0 [-]
Volume:                                   0 [-]
Gibbs Volume:                             0 [-]
Parallel Tempering Swap:                  0 [-]
                All summed:         2000000 [-]
                difference:               0 [-]




Production run CPU timings of the MC moves
===============================================================================

Component 0 helium

    Widom CBMC:                      468.858096 [s]
        Non-Ewald:                   455.703950 [s]
        Ewald:                         0.073414 [s]
        Tail:                          0.000000 [s]
        Overhead:                     13.080732 [s]



Property sampling                      0.129021 [s]
Energy/pressure sampling:              0.471618 [s]


Production run CPU timings of the MC moves summed over systems and components
===============================================================================


Widom CBMC:                         468.858096 [s]
    Non-Ewald:                      455.703950 [s]
    Ewald:                            0.073414 [s]
    Tail:                             0.000000 [s]
    Overhead:                        13.080732 [s]

Property sampling:                    0.129021 [s]
Energy/pressure sampling:             0.471618 [s]

Production simulation time:         469.738667 [s]
                All summed:         469.458735 [s]
                  Overhead:           0.279932 [s]


Initalization simulation time:        0.002481 [s]
Equilibration simulation time:        0.000000 [s]
Production simulation time:         469.738667 [s]
Total simulation time:              469.741148 [s]


Energy averages and statistics:
===============================================================================

Framework-molecule energy:
-------------------------------------------------------------------------------

    Framework-molecule energy 0-0 [ITQ-29-helium]:
    ---------------------------------------------------------------------------
        Block[  0] -9.812082e+01
        Block[  1] -9.812082e+01
        Block[  2] -9.812082e+01
        Block[  3] -9.812082e+01
        Block[  4] -9.812082e+01
        -----------------------------------------------------------------------
        Average  -9.812082e+01 +/-  0.000000e+00 [K]



Framework-molecule energy contributions per energy type:
-------------------------------------------------------------------------------

    Van der Waals energy 0-0 [ITQ-29-helium]:
    ---------------------------------------------------------------------------
        Block[  0] -9.812082e+01
        Block[  1] -9.812082e+01
        Block[  2] -9.812082e+01
        Block[  3] -9.812082e+01
        Block[  4] -9.812082e+01
        -----------------------------------------------------------------------
        Average  -9.812082e+01 +/-  0.000000e+00 [K]

    VDW Tail-Correction energy 0-0 [ITQ-29-helium]:
    ---------------------------------------------------------------------------
        Block[  0]  0.000000e+00
        Block[  1]  0.000000e+00
        Block[  2]  0.000000e+00
        Block[  3]  0.000000e+00
        Block[  4]  0.000000e+00
        -----------------------------------------------------------------------
        Average   0.000000e+00 +/-  0.000000e+00 [K]

    Coulomb Real energy 0-0 [ITQ-29-helium]:
    ---------------------------------------------------------------------------
        Block[  0]  0.000000e+00
        Block[  1]  0.000000e+00
        Block[  2]  0.000000e+00
        Block[  3]  0.000000e+00
        Block[  4]  0.000000e+00
        -----------------------------------------------------------------------
        Average   0.000000e+00 +/-  0.000000e+00 [K]

    Coulomb Fourier energy 0-0 [ITQ-29-helium]:
    ---------------------------------------------------------------------------
        Block[  0]  0.000000e+00
        Block[  1]  0.000000e+00
        Block[  2]  0.000000e+00
        Block[  3]  0.000000e+00
        Block[  4]  0.000000e+00
        -----------------------------------------------------------------------
        Average   0.000000e+00 +/-  0.000000e+00 [K]



Inter-molecular energy:
-------------------------------------------------------------------------------

    Inter-molecular energy 0-0 [helium-helium]:
    ---------------------------------------------------------------------------
        Block[  0]  0.000000e+00
        Block[  1]  0.000000e+00
        Block[  2]  0.000000e+00
        Block[  3]  0.000000e+00
        Block[  4]  0.000000e+00
        -----------------------------------------------------------------------
        Average   0.000000e+00 +/-  0.000000e+00 [K]



Inter-molecular energy contributions per energy type:
-------------------------------------------------------------------------------

    Van der Waals energy 0-0 [helium-helium]:
    ---------------------------------------------------------------------------
        Block[  0]  0.000000e+00
        Block[  1]  0.000000e+00
        Block[  2]  0.000000e+00
        Block[  3]  0.000000e+00
        Block[  4]  0.000000e+00
        -----------------------------------------------------------------------
        Average   0.000000e+00 +/-  0.000000e+00 [K]

    VDW Tail-Correction energy 0-0 [helium-helium]:
    ---------------------------------------------------------------------------
        Block[  0]  0.000000e+00
        Block[  1]  0.000000e+00
        Block[  2]  0.000000e+00
        Block[  3]  0.000000e+00
        Block[  4]  0.000000e+00
        -----------------------------------------------------------------------
        Average   0.000000e+00 +/-  0.000000e+00 [K]

    Coulomb Real energy 0-0 [helium-helium]:
    ---------------------------------------------------------------------------
        Block[  0]  0.000000e+00
        Block[  1]  0.000000e+00
        Block[  2]  0.000000e+00
        Block[  3]  0.000000e+00
        Block[  4]  0.000000e+00
        -----------------------------------------------------------------------
        Average   0.000000e+00 +/-  0.000000e+00 [K]

    Coulomb Fourier energy 0-0 [helium-helium]:
    ---------------------------------------------------------------------------
        Block[  0]  0.000000e+00
        Block[  1]  0.000000e+00
        Block[  2]  0.000000e+00
        Block[  3]  0.000000e+00
        Block[  4]  0.000000e+00
        -----------------------------------------------------------------------
        Average   0.000000e+00 +/-  0.000000e+00 [K]


Total energy:
-------------------------------------------------------------------------------
    Block[  0] -9.812082e+01
    Block[  1] -9.812082e+01
    Block[  2] -9.812082e+01
    Block[  3] -9.812082e+01
    Block[  4] -9.812082e+01
    ---------------------------------------------------------------------------
    Average  -9.812082e+01 +/-  0.000000e+00 [K]

Pressure averages and statistics:
===============================================================================

Average pressure tensor: 
-------------------------------------------------------------------------------
 1.0884e+00  8.9423e-02 -2.5968e-01 +/- 5.5787e-05 2.4824e-06 7.2088e-06 [bar]
 8.9423e-02  9.9688e-01  5.6245e-03 +/- 2.4824e-06 5.8328e-05 1.5614e-07 [bar]
-2.5968e-01  5.6245e-03  9.6647e-01 +/- 7.2088e-06 1.5614e-07 5.9172e-05 [bar]

    Block[  0]  3.097998e+05
    Block[  1]  3.097998e+05
    Block[  2]  3.097998e+05
    Block[  3]  3.097998e+05
    Block[  4]  3.097998e+05
    ---------------------------------------------------------------------------
    Ideal gas pressure   3.097998e+05 +/-  0.000000e+00 [Pa]
                         3.097998e+00 +/-  0.000000e+00 [bar]


    Block[  0] -2.080663e+05
    Block[  1] -2.080767e+05
    Block[  2] -2.080767e+05
    Block[  3] -2.080767e+05
    Block[  4] -2.080767e+05
    ---------------------------------------------------------------------------
    Excess pressure  -2.080747e+05 +/-  5.776210e+00 [Pa]
                     -2.080747e+00 +/-  5.776210e-05 [bar]


    Block[  0]  1.017335e+05
    Block[  1]  1.017231e+05
    Block[  2]  1.017231e+05
    Block[  3]  1.017231e+05
    Block[  4]  1.017231e+05
    ---------------------------------------------------------------------------
    Pressure average   1.017252e+05 +/-  5.776210e+00 [Pa]
                       1.017252e+00 +/-  5.776210e-05 [bar]


Enthalpy of adsorption
===============================================================================

No fluctuating components present.


Loadings
===============================================================================

Component 0 (helium)
    Block[  0]  1.000000e+00
    Block[  1]  1.000000e+00
    Block[  2]  1.000000e+00
    Block[  3]  1.000000e+00
    Block[  4]  1.000000e+00
    ---------------------------------------------------------------------------
    Abs. loading average   1.000000e+00 +/-  0.000000e+00 [molecules/cell]
    Abs. loading average   6.181521e-02 +/-  0.000000e+00 [mol/kg-framework]
    Abs. loading average   2.474217e-01 +/-  0.000000e+00 [mg/g-framework]

    Block[  0]  1.000000e+00
    Block[  1]  1.000000e+00
    Block[  2]  1.000000e+00
    Block[  3]  1.000000e+00
    Block[  4]  1.000000e+00
    ---------------------------------------------------------------------------
    Excess loading average   1.000000e+00 +/-  0.000000e+00 [molecules/cell]
    Excess loading average   6.181521e-02 +/-  0.000000e+00 [mol/kg-framework]
    Excess loading average   2.474217e-01 +/-  0.000000e+00 [mg/g-framework]



